       N       E                     dE             d eps       ncg     rms          rms(c)
RMM:   1    -0.377135711623E+03   -0.37714E+03   -0.16908E+02   834   0.275E+01    0.197E+01
RMM:   2    -0.453392743254E+03   -0.76257E+02   -0.99357E+01   702   0.354E+01    0.813E+01
RMM:   3    -0.389292027229E+03    0.64101E+02   -0.45400E+01   778   0.191E+01    0.417E+01
RMM:   4    -0.374597478501E+03    0.14695E+02   -0.90063E+00   909   0.689E+00    0.152E+01
RMM:   5    -0.376737326661E+03   -0.21398E+01   -0.46857E+00   947   0.406E+00    0.306E+01
RMM:   6    -0.375357386280E+03    0.13799E+01   -0.35648E+00   931   0.352E+00    0.263E+01
RMM:   7    -0.373285912734E+03    0.20715E+01   -0.20728E+00   919   0.254E+00    0.133E+01
RMM:   8    -0.372607801646E+03    0.67811E+00   -0.51503E-01   927   0.153E+00    0.512E+00
RMM:   9    -0.372526203653E+03    0.81598E-01   -0.63614E-02   890   0.575E-01    0.437E+00
RMM:  10    -0.372504736571E+03    0.21467E-01   -0.16612E-02   780   0.261E-01    0.378E+00
RMM:  11    -0.372450181139E+03    0.54555E-01   -0.20240E-02   847   0.295E-01    0.202E+00
RMM:  12    -0.372436311823E+03    0.13869E-01   -0.68954E-03   823   0.148E-01    0.125E+00
RMM:  13    -0.372429336413E+03    0.69754E-02   -0.37854E-03   752   0.137E-01    0.162E-01
RMM:  14    -0.372429387693E+03   -0.51280E-04   -0.40303E-04   459   0.570E-02
   1 T=  3491. E= -.33508781E+03 F= -.37242939E+03 E0= -.36916835E+03  EK= 0.28428E+02 SP= 0.89E+01 SK= 0.46E-01
       N       E                     dE             d eps       ncg     rms          rms(c)
RMM:   1    -0.371272717631E+03   -0.37127E+03   -0.11632E+02   821   0.234E+01    0.190E+00
RMM:   2    -0.372270456470E+03   -0.99774E+00   -0.15452E+01   694   0.200E+01    0.225E+00
RMM:   3    -0.372319344401E+03   -0.48888E-01   -0.76018E-01   793   0.385E+00    0.559E-01
RMM:   4    -0.372328341756E+03   -0.89974E-02   -0.19082E-01   988   0.113E+00    0.371E-01
RMM:   5    -0.372327068190E+03    0.12736E-02   -0.13590E-02   936   0.304E-01    0.447E-01
RMM:   6    -0.372326219526E+03    0.84866E-03   -0.20826E-03   803   0.146E-01    0.987E-02
RMM:   7    -0.372326135694E+03    0.83832E-04   -0.34771E-04   496   0.639E-02
   2 T=  3455. E= -.33508788E+03 F= -.37232614E+03 E0= -.36907439E+03  EK= 0.28133E+02 SP= 0.91E+01 SK= 0.17E-01
       N       E                     dE             d eps       ncg     rms          rms(c)
RMM:   1    -0.372359479091E+03   -0.37236E+03   -0.34936E+00   895   0.436E+00    0.450E-01
RMM:   2    -0.372398111671E+03   -0.38633E-01   -0.66043E-01   758   0.338E+00    0.383E-01
RMM:   3    -0.372396980357E+03    0.11313E-02   -0.21907E-02   794   0.553E-01    0.124E-01
RMM:   4    -0.372396785914E+03    0.19444E-03   -0.39317E-03   814   0.141E-01    0.638E-02
RMM:   5    -0.372396659158E+03    0.12676E-03   -0.32940E-04   458   0.621E-02    0.439E-02
RMM:   6    -0.372396648423E+03    0.10735E-04   -0.73678E-05   358   0.361E-02
   3 T=  3451. E= -.33509229E+03 F= -.37239665E+03 E0= -.36914914E+03  EK= 0.28104E+02 SP= 0.92E+01 SK= 0.19E-02
       N       E                     dE             d eps       ncg     rms          rms(c)
RMM:   1    -0.372599755740E+03   -0.37260E+03   -0.30114E-01   987   0.134E+00    0.913E-02
RMM:   2    -0.372597792603E+03    0.19631E-02   -0.84731E-03   901   0.192E-01    0.568E-02
RMM:   3    -0.372597505383E+03    0.28722E-03   -0.52894E-04   520   0.854E-02    0.284E-02
RMM:   4    -0.372597515333E+03   -0.99501E-05   -0.21478E-04   418   0.391E-02
   4 T=  3475. E= -.33509778E+03 F= -.37259752E+03 E0= -.36934981E+03  EK= 0.28299E+02 SP= 0.92E+01 SK= 0.17E-02
       N       E                     dE             d eps       ncg     rms          rms(c)
RMM:   1    -0.372850021574E+03   -0.37285E+03   -0.36738E-01   965   0.141E+00    0.117E-01
RMM:   2    -0.372846715030E+03    0.33065E-02   -0.12468E-02   930   0.233E-01    0.918E-02
RMM:   3    -0.372846282366E+03    0.43266E-03   -0.89999E-04   569   0.987E-02    0.195E-02
RMM:   4    -0.372846305609E+03   -0.23243E-04   -0.31997E-04   420   0.412E-02
   5 T=  3516. E= -.33510542E+03 F= -.37284631E+03 E0= -.36959394E+03  EK= 0.28632E+02 SP= 0.91E+01 SK= 0.15E-01
       N       E                     dE             d eps       ncg     rms          rms(c)
RMM:   1    -0.373040201508E+03   -0.37304E+03   -0.37560E-01   947   0.139E+00    0.883E-02
RMM:   2    -0.373036984011E+03    0.32175E-02   -0.12233E-02   936   0.248E-01    0.303E-02
RMM:   3    -0.373036668246E+03    0.31576E-03   -0.91692E-04   561   0.100E-01    0.407E-02
RMM:   4    -0.373036684789E+03   -0.16543E-04   -0.28968E-04   423   0.408E-02
   6 T=  3560. E= -.33511348E+03 F= -.37303668E+03 E0= -.36977637E+03  EK= 0.28994E+02 SP= 0.89E+01 SK= 0.38E-01
       N       E                     dE             d eps       ncg     rms          rms(c)
RMM:   1    -0.373068201531E+03   -0.37307E+03   -0.43723E-01   937   0.140E+00    0.830E-02
RMM:   2    -0.373062717790E+03    0.54837E-02   -0.13140E-02   945   0.269E-01    0.297E-02
RMM:   3    -0.373062360842E+03    0.35695E-03   -0.11428E-03   574   0.112E-01    0.218E-02
RMM:   4    -0.373062379936E+03   -0.19095E-04   -0.27589E-04   442   0.409E-02
   7 T=  3595. E= -.33511963E+03 F= -.37306238E+03 E0= -.36979139E+03  EK= 0.29274E+02 SP= 0.86E+01 SK= 0.68E-01
       N       E                     dE             d eps       ncg     rms          rms(c)
RMM:   1    -0.372848530769E+03   -0.37285E+03   -0.54542E-01   934   0.155E+00    0.801E-02
RMM:   2    -0.372841737397E+03    0.67934E-02   -0.18998E-02   951   0.302E-01    0.237E-02
RMM:   3    -0.372841159272E+03    0.57812E-03   -0.15518E-03   621   0.126E-01    0.117E-02
RMM:   4    -0.372841195668E+03   -0.36396E-04   -0.44226E-04   462   0.452E-02
   8 T=  3609. E= -.33512222E+03 F= -.37284120E+03 E0= -.36955771E+03  EK= 0.29386E+02 SP= 0.82E+01 SK= 0.11E+00
       N       E                     dE             d eps       ncg     rms          rms(c)
RMM:   1    -0.372341358970E+03   -0.37234E+03   -0.58264E-01   932   0.163E+00    0.792E-02
RMM:   2    -0.372334138560E+03    0.72204E-02   -0.23028E-02   947   0.323E-01    0.357E-02
RMM:   3    -0.372333452957E+03    0.68560E-03   -0.19430E-03   660   0.133E-01    0.121E-02
RMM:   4    -0.372333494996E+03   -0.42039E-04   -0.54316E-04   470   0.482E-02
   9 T=  3596. E= -.33512018E+03 F= -.37233349E+03 E0= -.36903627E+03  EK= 0.29286E+02 SP= 0.78E+01 SK= 0.15E+00
       N       E                     dE             d eps       ncg     rms          rms(c)
RMM:   1    -0.371562237454E+03   -0.37156E+03   -0.62614E-01   931   0.166E+00    0.912E-02
RMM:   2    -0.371553853548E+03    0.83839E-02   -0.25538E-02   950   0.343E-01    0.329E-02
RMM:   3    -0.371553081513E+03    0.77204E-03   -0.22068E-03   678   0.142E-01    0.124E-02
RMM:   4    -0.371553132204E+03   -0.50691E-04   -0.61694E-04   484   0.506E-02
  10 T=  3560. E= -.33511354E+03 F= -.37155313E+03 E0= -.36824133E+03  EK= 0.28989E+02 SP= 0.72E+01 SK= 0.21E+00
       N       E                     dE             d eps       ncg     rms          rms(c)
RMM:   1    -0.370582235504E+03   -0.37058E+03   -0.74150E-01   928   0.179E+00    0.855E-02
RMM:   2    -0.370571061172E+03    0.11174E-01   -0.32839E-02   958   0.388E-01    0.373E-02
RMM:   3    -0.370570032771E+03    0.10284E-02   -0.29493E-03   722   0.164E-01    0.234E-02
RMM:   4    -0.370570086690E+03   -0.53919E-04   -0.76334E-04   510   0.547E-02
  11 T=  3508. E= -.33510341E+03 F= -.37057009E+03 E0= -.36724292E+03  EK= 0.28564E+02 SP= 0.66E+01 SK= 0.28E+00
       N       E                     dE             d eps       ncg     rms          rms(c)
RMM:   1    -0.369518615723E+03   -0.36952E+03   -0.87149E-01   926   0.186E+00    0.986E-02
RMM:   2    -0.369502369613E+03    0.16246E-01   -0.40700E-02   963   0.424E-01    0.455E-02
RMM:   3    -0.369500937358E+03    0.14323E-02   -0.39481E-03   760   0.186E-01    0.229E-02
RMM:   4    -0.369500996897E+03   -0.59539E-04   -0.96962E-04   538   0.579E-02
  12 T=  3455. E= -.33509124E+03 F= -.36950100E+03 E0= -.36615735E+03  EK= 0.28133E+02 SP= 0.59E+01 SK= 0.37E+00
       N       E                     dE             d eps       ncg     rms          rms(c)
RMM:   1    -0.368514305236E+03   -0.36851E+03   -0.10206E+00   923   0.199E+00    0.989E-02
RMM:   2    -0.368494328700E+03    0.19977E-01   -0.51944E-02   963   0.476E-01    0.358E-02
RMM:   3    -0.368492395397E+03    0.19333E-02   -0.50184E-03   768   0.213E-01    0.255E-02
RMM:   4    -0.368492465538E+03   -0.70142E-04   -0.11753E-03   557   0.626E-02    0.129E-02
RMM:   5    -0.368492428259E+03    0.37279E-04   -0.15515E-04   422   0.386E-02
  13 T=  3420. E= -.33507953E+03 F= -.36849243E+03 E0= -.36513088E+03  EK= 0.27849E+02 SP= 0.51E+01 SK= 0.49E+00
       N       E                     dE             d eps       ncg     rms          rms(c)
RMM:   1    -0.367689524219E+03   -0.36769E+03   -0.12115E+00   858   0.359E+00    0.121E-01
RMM:   2    -0.367704218168E+03   -0.14694E-01   -0.20619E-01   943   0.822E-01    0.931E-02
RMM:   3    -0.367697967240E+03    0.62509E-02   -0.19226E-02   883   0.273E-01    0.431E-02
RMM:   4    -0.367697493946E+03    0.47329E-03   -0.15646E-03   626   0.104E-01    0.300E-02
RMM:   5    -0.367697472904E+03    0.21041E-04   -0.33772E-04   463   0.436E-02
  14 T=  3423. E= -.33507117E+03 F= -.36769747E+03 E0= -.36431623E+03  EK= 0.27871E+02 SP= 0.41E+01 SK= 0.63E+00
       N       E                     dE             d eps       ncg     rms          rms(c)
RMM:   1    -0.367202227322E+03   -0.36720E+03   -0.14335E+00   776   0.490E+00    0.192E-01
RMM:   2    -0.367252088720E+03   -0.49861E-01   -0.39854E-01   929   0.125E+00    0.105E-01
RMM:   3    -0.367242617601E+03    0.94711E-02   -0.31811E-02   912   0.346E-01    0.575E-02
RMM:   4    -0.367241634552E+03    0.98305E-03   -0.20808E-03   675   0.140E-01    0.385E-02
RMM:   5    -0.367241642263E+03   -0.77109E-05   -0.54721E-04   503   0.504E-02
  15 T=  3479. E= -.33506932E+03 F= -.36724164E+03 E0= -.36383889E+03  EK= 0.28334E+02 SP= 0.31E+01 SK= 0.77E+00
       N       E                     dE             d eps       ncg     rms          rms(c)
RMM:   1    -0.367128368764E+03   -0.36713E+03   -0.17094E+00   752   0.562E+00    0.193E-01
RMM:   2    -0.367192941253E+03   -0.64572E-01   -0.56530E-01   923   0.142E+00    0.102E-01
RMM:   3    -0.367181029225E+03    0.11912E-01   -0.35241E-02   924   0.401E-01    0.592E-02
RMM:   4    -0.367179687677E+03    0.13415E-02   -0.26636E-03   712   0.162E-01    0.344E-02
RMM:   5    -0.367179713244E+03   -0.25567E-04   -0.74583E-04   525   0.545E-02
  16 T=  3598. E= -.33507627E+03 F= -.36717971E+03 E0= -.36375407E+03  EK= 0.29298E+02 SP= 0.19E+01 SK= 0.91E+00
       N       E                     dE             d eps       ncg     rms          rms(c)
RMM:   1    -0.367404904564E+03   -0.36740E+03   -0.21877E+00   726   0.643E+00    0.223E-01
RMM:   2    -0.367478753186E+03   -0.73849E-01   -0.63477E-01   927   0.157E+00    0.112E-01
RMM:   3    -0.367466071035E+03    0.12682E-01   -0.43392E-02   931   0.445E-01    0.661E-02
RMM:   4    -0.367464577498E+03    0.14935E-02   -0.32156E-03   730   0.174E-01    0.486E-02
RMM:   5    -0.367464593168E+03   -0.15670E-04   -0.90753E-04   541   0.556E-02
  17 T=  3772. E= -.33509051E+03 F= -.36746459E+03 E0= -.36401538E+03  EK= 0.30718E+02 SP= 0.65E+00 SK= 0.10E+01
       N       E                     dE             d eps       ncg     rms          rms(c)
RMM:   1    -0.367882497429E+03   -0.36788E+03   -0.24883E+00   735   0.696E+00    0.235E-01
RMM:   2    -0.367971823301E+03   -0.89326E-01   -0.98013E-01   921   0.172E+00    0.116E-01
RMM:   3    -0.367960674203E+03    0.11149E-01   -0.56141E-02   946   0.471E-01    0.658E-02
RMM:   4    -0.367958961083E+03    0.17131E-02   -0.35769E-03   762   0.176E-01    0.436E-02
RMM:   5    -0.367958973351E+03   -0.12268E-04   -0.92526E-04   540   0.571E-02
  18 T=  3985. E= -.33510783E+03 F= -.36795897E+03 E0= -.36448683E+03  EK= 0.32449E+02 SP= -.64E+00 SK= 0.10E+01
       N       E                     dE             d eps       ncg     rms          rms(c)
RMM:   1    -0.368427322971E+03   -0.36843E+03   -0.27873E+00   719   0.745E+00    0.240E-01
RMM:   2    -0.368509304504E+03   -0.81982E-01   -0.15527E+00   931   0.180E+00    0.115E-01
RMM:   3    -0.368495140358E+03    0.14164E-01   -0.59845E-02   941   0.487E-01    0.704E-02
RMM:   4    -0.368493235054E+03    0.19053E-02   -0.38155E-03   748   0.182E-01    0.555E-02
RMM:   5    -0.368493227027E+03    0.80268E-05   -0.94525E-04   553   0.578E-02
  19 T=  4211. E= -.33512338E+03 F= -.36849323E+03 E0= -.36500020E+03  EK= 0.34295E+02 SP= -.19E+01 SK= 0.10E+01
       N       E                     dE             d eps       ncg     rms          rms(c)
RMM:   1    -0.368840374121E+03   -0.36884E+03   -0.30165E+00   721   0.765E+00    0.258E-01
RMM:   2    -0.368947809874E+03   -0.10744E+00   -0.99833E-01   932   0.186E+00    0.139E-01
RMM:   3    -0.368931341744E+03    0.16468E-01   -0.64133E-02   954   0.506E-01    0.779E-02
RMM:   4    -0.368929284402E+03    0.20573E-02   -0.41416E-03   761   0.192E-01    0.472E-02
RMM:   5    -0.368929311097E+03   -0.26695E-04   -0.11906E-03   548   0.591E-02    0.297E-02
RMM:   6    -0.368929260761E+03    0.50336E-04   -0.17754E-04   415   0.402E-02
  20 T=  4430. E= -.33513384E+03 F= -.36892926E+03 E0= -.36541945E+03  EK= 0.36073E+02 SP= -.32E+01 SK= 0.91E+00
       N       E                     dE             d eps       ncg     rms          rms(c)
RMM:   1    -0.369143249079E+03   -0.36914E+03   -0.21840E+00   728   0.642E+00    0.214E-01
RMM:   2    -0.369214117788E+03   -0.70869E-01   -0.74305E-01   920   0.156E+00    0.121E-01
RMM:   3    -0.369190537301E+03    0.23580E-01   -0.47572E-02   962   0.527E-01    0.673E-02
RMM:   4    -0.369189033095E+03    0.15042E-02   -0.54276E-03   733   0.164E-01    0.536E-02
RMM:   5    -0.369188884655E+03    0.14844E-03   -0.73167E-04   538   0.571E-02    0.372E-02
RMM:   6    -0.369188842476E+03    0.42179E-04   -0.15560E-04   393   0.330E-02
  21 T=  4623. E= -.33514087E+03 F= -.36918884E+03 E0= -.36566718E+03  EK= 0.37646E+02 SP= -.44E+01 SK= 0.76E+00
       N       E                     dE             d eps       ncg     rms          rms(c)
RMM:   1    -0.369234597533E+03   -0.36923E+03   -0.19054E+00   861   0.441E+00    0.139E-01
RMM:   2    -0.369253897847E+03   -0.19300E-01   -0.35365E-01   961   0.945E-01    0.923E-02
RMM:   3    -0.369243543986E+03    0.10354E-01   -0.23563E-02   889   0.342E-01    0.567E-02
RMM:   4    -0.369242836952E+03    0.70703E-03   -0.27400E-03   680   0.117E-01    0.360E-02
RMM:   5    -0.369242770929E+03    0.66023E-04   -0.42365E-04   488   0.485E-02
  22 T=  4779. E= -.33514419E+03 F= -.36924277E+03 E0= -.36571481E+03  EK= 0.38920E+02 SP= -.54E+01 SK= 0.58E+00
       N       E                     dE             d eps       ncg     rms          rms(c)
RMM:   1    -0.369013781722E+03   -0.36901E+03   -0.30618E+00   791   0.675E+00    0.258E-01
RMM:   2    -0.369112657301E+03   -0.98876E-01   -0.77566E-01   931   0.173E+00    0.160E-01
RMM:   3    -0.369093420000E+03    0.19237E-01   -0.67460E-02   946   0.496E-01    0.986E-02
RMM:   4    -0.369091607342E+03    0.18127E-02   -0.39984E-03   752   0.188E-01    0.749E-02
RMM:   5    -0.369091602164E+03    0.51775E-05   -0.12334E-03   568   0.600E-02    0.480E-02
RMM:   6    -0.369091532528E+03    0.69637E-04   -0.17399E-04   414   0.406E-02
  23 T=  4892. E= -.33514296E+03 F= -.36909153E+03 E0= -.36556319E+03  EK= 0.39840E+02 SP= -.63E+01 SK= 0.40E+00
       N       E                     dE             d eps       ncg     rms          rms(c)
RMM:   1    -0.368689646529E+03   -0.36869E+03   -0.24987E+00   767   0.656E+00    0.210E-01
RMM:   2    -0.368787756951E+03   -0.98110E-01   -0.93524E-01   934   0.162E+00    0.131E-01
RMM:   3    -0.368758980986E+03    0.28776E-01   -0.62572E-02   954   0.546E-01    0.706E-02
RMM:   4    -0.368757241807E+03    0.17392E-02   -0.55372E-03   771   0.171E-01    0.442E-02
RMM:   5    -0.368757156697E+03    0.85110E-04   -0.10196E-03   566   0.597E-02    0.249E-02
RMM:   6    -0.368757120448E+03    0.36249E-04   -0.13877E-04   399   0.341E-02
  24 T=  4959. E= -.33513947E+03 F= -.36875712E+03 E0= -.36523317E+03  EK= 0.40379E+02 SP= -.70E+01 SK= 0.23E+00
       N       E                     dE             d eps       ncg     rms          rms(c)
RMM:   1    -0.368278217481E+03   -0.36828E+03   -0.21468E+00   869   0.446E+00    0.141E-01
RMM:   2    -0.368292655464E+03   -0.14438E-01   -0.35691E-01   962   0.966E-01    0.100E-01
RMM:   3    -0.368283125581E+03    0.95299E-02   -0.22656E-02   891   0.344E-01    0.759E-02
RMM:   4    -0.368282727458E+03    0.39812E-03   -0.37018E-03   679   0.115E-01    0.479E-02
RMM:   5    -0.368282626305E+03    0.10115E-03   -0.52045E-04   499   0.503E-02    0.299E-02
RMM:   6    -0.368282607134E+03    0.19171E-04   -0.11782E-04   374   0.315E-02
  25 T=  4979. E= -.33513381E+03 F= -.36828261E+03 E0= -.36476645E+03  EK= 0.40550E+02 SP= -.75E+01 SK= 0.11E+00
       N       E                     dE             d eps       ncg     rms          rms(c)
RMM:   1    -0.367711588399E+03   -0.36771E+03   -0.20302E+00   852   0.464E+00    0.138E-01
RMM:   2    -0.367741650665E+03   -0.30062E-01   -0.41262E-01   955   0.111E+00    0.929E-02
RMM:   3    -0.367730481138E+03    0.11170E-01   -0.26187E-02   873   0.386E-01    0.604E-02
RMM:   4    -0.367729975401E+03    0.50574E-03   -0.38116E-03   683   0.123E-01    0.400E-02
RMM:   5    -0.367729896097E+03    0.79303E-04   -0.55933E-04   488   0.501E-02
  26 T=  4961. E= -.33512562E+03 F= -.36772990E+03 E0= -.36422293E+03  EK= 0.40400E+02 SP= -.78E+01 SK= 0.31E-01
       N       E                     dE             d eps       ncg     rms          rms(c)
RMM:   1    -0.367140579641E+03   -0.36714E+03   -0.23518E+00   852   0.515E+00    0.155E-01
RMM:   2    -0.367180283327E+03   -0.39704E-01   -0.43642E-01   960   0.116E+00    0.108E-01
RMM:   3    -0.367167379034E+03    0.12904E-01   -0.28811E-02   893   0.356E-01    0.686E-02
RMM:   4    -0.367166423509E+03    0.95553E-03   -0.27330E-03   675   0.141E-01    0.430E-02
RMM:   5    -0.367166438698E+03   -0.15189E-04   -0.85264E-04   507   0.497E-02
  27 T=  4912. E= -.33511674E+03 F= -.36716644E+03 E0= -.36366823E+03  EK= 0.40000E+02 SP= -.80E+01 SK= 0.69E-03
       N       E                     dE             d eps       ncg     rms          rms(c)
RMM:   1    -0.366545892054E+03   -0.36655E+03   -0.29792E+00   774   0.704E+00    0.238E-01
RMM:   2    -0.366663412520E+03   -0.11752E+00   -0.80914E-01   939   0.176E+00    0.135E-01
RMM:   3    -0.366644292663E+03    0.19120E-01   -0.68317E-02   941   0.478E-01    0.760E-02
RMM:   4    -0.366642451032E+03    0.18416E-02   -0.37768E-03   732   0.184E-01    0.550E-02
RMM:   5    -0.366642502382E+03   -0.51351E-04   -0.12177E-03   549   0.575E-02    0.374E-02
RMM:   6    -0.366642442715E+03    0.59667E-04   -0.15852E-04   393   0.377E-02
  28 T=  4840. E= -.33510975E+03 F= -.36664244E+03 E0= -.36315147E+03  EK= 0.39413E+02 SP= -.79E+01 SK= 0.13E-01
       N       E                     dE             d eps       ncg     rms          rms(c)
RMM:   1    -0.366099762476E+03   -0.36610E+03   -0.27461E+00   766   0.677E+00    0.198E-01
RMM:   2    -0.366195447588E+03   -0.95685E-01   -0.86266E-01   937   0.169E+00    0.108E-01
RMM:   3    -0.366172710709E+03    0.22737E-01   -0.52623E-02   957   0.492E-01    0.661E-02
RMM:   4    -0.366170860879E+03    0.18498E-02   -0.40428E-03   725   0.187E-01    0.471E-02
RMM:   5    -0.366170902074E+03   -0.41195E-04   -0.12609E-03   560   0.575E-02    0.272E-02
RMM:   6    -0.366170848248E+03    0.53826E-04   -0.16443E-04   402   0.381E-02
  29 T=  4749. E= -.33510671E+03 F= -.36617085E+03 E0= -.36268494E+03  EK= 0.38673E+02 SP= -.77E+01 SK= 0.57E-01
       N       E                     dE             d eps       ncg     rms          rms(c)
RMM:   1    -0.365734682357E+03   -0.36573E+03   -0.26287E+00   880   0.466E+00    0.132E-01
RMM:   2    -0.365736998478E+03   -0.23161E-02   -0.36982E-01   963   0.101E+00    0.953E-02
RMM:   3    -0.365727053184E+03    0.99453E-02   -0.24929E-02   884   0.368E-01    0.712E-02
RMM:   4    -0.365726599355E+03    0.45383E-03   -0.37554E-03   692   0.120E-01    0.506E-02
RMM:   5    -0.365726497015E+03    0.10234E-03   -0.57686E-04   500   0.506E-02    0.328E-02
RMM:   6    -0.365726473567E+03    0.23449E-04   -0.11337E-04   380   0.308E-02
  30 T=  4640. E= -.33510500E+03 F= -.36572647E+03 E0= -.36224412E+03  EK= 0.37788E+02 SP= -.73E+01 SK= 0.12E+00
       N       E                     dE             d eps       ncg     rms          rms(c)
RMM:   1    -0.365234506098E+03   -0.36523E+03   -0.22271E+00   813   0.528E+00    0.165E-01
RMM:   2    -0.365293181038E+03   -0.58675E-01   -0.63933E-01   932   0.129E+00    0.933E-02
RMM:   3    -0.365275628339E+03    0.17553E-01   -0.39369E-02   903   0.463E-01    0.668E-02
RMM:   4    -0.365274512524E+03    0.11158E-02   -0.48045E-03   704   0.152E-01    0.473E-02
RMM:   5    -0.365274438095E+03    0.74429E-04   -0.82178E-04   532   0.555E-02
  31 T=  4514. E= -.33509992E+03 F= -.36527444E+03 E0= -.36179565E+03  EK= 0.36763E+02 SP= -.68E+01 SK= 0.19E+00
       N       E                     dE             d eps       ncg     rms          rms(c)
RMM:   1    -0.364799073934E+03   -0.36480E+03   -0.24133E+00   854   0.491E+00    0.157E-01
RMM:   2    -0.364826739881E+03   -0.27666E-01   -0.42063E-01   963   0.110E+00    0.120E-01
RMM:   3    -0.364814021703E+03    0.12718E-01   -0.32538E-02   902   0.363E-01    0.843E-02
RMM:   4    -0.364813102990E+03    0.91871E-03   -0.35334E-03   687   0.140E-01    0.560E-02
RMM:   5    -0.364813029096E+03    0.73895E-04   -0.79697E-04   529   0.547E-02
  32 T=  4376. E= -.33508876E+03 F= -.36481303E+03 E0= -.36133927E+03  EK= 0.35637E+02 SP= -.62E+01 SK= 0.26E+00
       N       E                     dE             d eps       ncg     rms          rms(c)
RMM:   1    -0.364331513526E+03   -0.36433E+03   -0.26937E+00   786   0.637E+00    0.227E-01
RMM:   2    -0.364435247641E+03   -0.10373E+00   -0.81733E-01   945   0.157E+00    0.133E-01
RMM:   3    -0.364410365644E+03    0.24882E-01   -0.55854E-02   941   0.456E-01    0.749E-02
RMM:   4    -0.364408171616E+03    0.21940E-02   -0.48537E-03   714   0.194E-01    0.509E-02
RMM:   5    -0.364408215761E+03   -0.44144E-04   -0.15286E-03   563   0.602E-02    0.302E-02
RMM:   6    -0.364408154933E+03    0.60827E-04   -0.20619E-04   433   0.397E-02
  33 T=  4238. E= -.33507294E+03 F= -.36440815E+03 E0= -.36094217E+03  EK= 0.34511E+02 SP= -.55E+01 SK= 0.31E+00
       N       E                     dE             d eps       ncg     rms          rms(c)
RMM:   1    -0.364136449202E+03   -0.36414E+03   -0.23997E+00   776   0.629E+00    0.197E-01
RMM:   2    -0.364228241319E+03   -0.91792E-01   -0.86550E-01   934   0.151E+00    0.987E-02
RMM:   3    -0.364201446870E+03    0.26794E-01   -0.59884E-02   948   0.499E-01    0.567E-02
RMM:   4    -0.364199071013E+03    0.23759E-02   -0.54637E-03   725   0.182E-01    0.441E-02
RMM:   5    -0.364198988781E+03    0.82231E-04   -0.11076E-03   558   0.626E-02    0.250E-02
RMM:   6    -0.364198948766E+03    0.40015E-04   -0.20723E-04   418   0.349E-02
  34 T=  4120. E= -.33505733E+03 F= -.36419895E+03 E0= -.36074415E+03  EK= 0.33552E+02 SP= -.48E+01 SK= 0.35E+00
       N       E                     dE             d eps       ncg     rms          rms(c)
RMM:   1    -0.364354798965E+03   -0.36435E+03   -0.19814E+00   881   0.414E+00    0.132E-01
RMM:   2    -0.364363305539E+03   -0.85066E-02   -0.30321E-01   953   0.879E-01    0.990E-02
RMM:   3    -0.364353762754E+03    0.95428E-02   -0.22506E-02   875   0.343E-01    0.669E-02
RMM:   4    -0.364353259450E+03    0.50330E-03   -0.35110E-03   685   0.113E-01    0.437E-02
RMM:   5    -0.364353155798E+03    0.10365E-03   -0.53151E-04   478   0.517E-02    0.273E-02
RMM:   6    -0.364353137872E+03    0.17926E-04   -0.13999E-04   388   0.316E-02
  35 T=  4045. E= -.33504709E+03 F= -.36435314E+03 E0= -.36091284E+03  EK= 0.32944E+02 SP= -.40E+01 SK= 0.36E+00
       N       E                     dE             d eps       ncg     rms          rms(c)
RMM:   1    -0.364950303532E+03   -0.36495E+03   -0.17806E+00   838   0.450E+00    0.167E-01
RMM:   2    -0.364996638278E+03   -0.46335E-01   -0.53462E-01   946   0.112E+00    0.107E-01
RMM:   3    -0.364979180300E+03    0.17458E-01   -0.34620E-02   881   0.404E-01    0.721E-02
RMM:   4    -0.364978019355E+03    0.11609E-02   -0.42586E-03   700   0.140E-01    0.460E-02
RMM:   5    -0.364977943701E+03    0.75655E-04   -0.81783E-04   516   0.530E-02
  36 T=  4027. E= -.33504835E+03 F= -.36497794E+03 E0= -.36155488E+03  EK= 0.32795E+02 SP= -.32E+01 SK= 0.37E+00
       N       E                     dE             d eps       ncg     rms          rms(c)
RMM:   1    -0.366008568514E+03   -0.36601E+03   -0.19964E+00   838   0.474E+00    0.152E-01
RMM:   2    -0.366053260182E+03   -0.44692E-01   -0.49147E-01   950   0.107E+00    0.110E-01
RMM:   3    -0.366036911251E+03    0.16349E-01   -0.32125E-02   889   0.365E-01    0.673E-02
RMM:   4    -0.366035729398E+03    0.11819E-02   -0.36054E-03   674   0.145E-01    0.462E-02
RMM:   5    -0.366035687013E+03    0.42385E-04   -0.89678E-04   514   0.539E-02
  37 T=  4060. E= -.33506207E+03 F= -.36603569E+03 E0= -.36263129E+03  EK= 0.33059E+02 SP= -.25E+01 SK= 0.38E+00
       N       E                     dE             d eps       ncg     rms          rms(c)
RMM:   1    -0.367259338856E+03   -0.36726E+03   -0.24653E+00   775   0.617E+00    0.225E-01
RMM:   2    -0.367354721125E+03   -0.95382E-01   -0.73434E-01   932   0.151E+00    0.128E-01
RMM:   3    -0.367333575921E+03    0.21145E-01   -0.49597E-02   920   0.424E-01    0.860E-02
RMM:   4    -0.367331760392E+03    0.18155E-02   -0.36767E-03   684   0.184E-01    0.646E-02
RMM:   5    -0.367331809908E+03   -0.49516E-04   -0.12801E-03   527   0.596E-02    0.433E-02
RMM:   6    -0.367331744441E+03    0.65467E-04   -0.19260E-04   415   0.433E-02
  38 T=  4118. E= -.33508262E+03 F= -.36733174E+03 E0= -.36394569E+03  EK= 0.33533E+02 SP= -.17E+01 SK= 0.39E+00
       N       E                     dE             d eps       ncg     rms          rms(c)
RMM:   1    -0.368534827961E+03   -0.36853E+03   -0.23052E+00   784   0.597E+00    0.231E-01
RMM:   2    -0.368621812536E+03   -0.86985E-01   -0.81948E-01   933   0.143E+00    0.128E-01
RMM:   3    -0.368594474512E+03    0.27338E-01   -0.78156E-02   926   0.478E-01    0.806E-02
RMM:   4    -0.368592254159E+03    0.22204E-02   -0.58349E-03   731   0.177E-01    0.460E-02
RMM:   5    -0.368592192723E+03    0.61436E-04   -0.13128E-03   567   0.615E-02    0.258E-02
RMM:   6    -0.368592136451E+03    0.56271E-04   -0.15739E-04   413   0.350E-02
  39 T=  4168. E= -.33510252E+03 F= -.36859214E+03 E0= -.36522227E+03  EK= 0.33938E+02 SP= -.87E+00 SK= 0.42E+00
       N       E                     dE             d eps       ncg     rms          rms(c)
RMM:   1    -0.369575475662E+03   -0.36958E+03   -0.24224E+00   875   0.444E+00    0.158E-01
RMM:   2    -0.369586362681E+03   -0.10887E-01   -0.41188E-01   955   0.914E-01    0.118E-01
RMM:   3    -0.369574462324E+03    0.11900E-01   -0.24880E-02   884   0.350E-01    0.800E-02
RMM:   4    -0.369573810093E+03    0.65223E-03   -0.38542E-03   688   0.118E-01    0.487E-02
RMM:   5    -0.369573701870E+03    0.10822E-03   -0.63066E-04   500   0.533E-02    0.288E-02
RMM:   6    -0.369573683913E+03    0.17958E-04   -0.15725E-04   392   0.320E-02
  40 T=  4179. E= -.33511377E+03 F= -.36957368E+03 E0= -.36621639E+03  EK= 0.34031E+02 SP= -.30E-01 SK= 0.46E+00
       N       E                     dE             d eps       ncg     rms          rms(c)
RMM:   1    -0.370109604838E+03   -0.37011E+03   -0.22288E+00   836   0.488E+00    0.180E-01
RMM:   2    -0.370154462076E+03   -0.44857E-01   -0.55184E-01   941   0.114E+00    0.100E-01
RMM:   3    -0.370137107221E+03    0.17355E-01   -0.33944E-02   890   0.392E-01    0.620E-02
RMM:   4    -0.370135906369E+03    0.12009E-02   -0.39643E-03   652   0.138E-01    0.459E-02
RMM:   5    -0.370135843880E+03    0.62489E-04   -0.82758E-04   505   0.540E-02
  41 T=  4136. E= -.33511474E+03 F= -.37013584E+03 E0= -.36678685E+03  EK= 0.33681E+02 SP= 0.85E+00 SK= 0.49E+00
       N       E                     dE             d eps       ncg     rms          rms(c)
RMM:   1    -0.370229523109E+03   -0.37023E+03   -0.25391E+00   845   0.513E+00    0.158E-01
RMM:   2    -0.370267155130E+03   -0.37632E-01   -0.48461E-01   955   0.112E+00    0.116E-01
RMM:   3    -0.370252103144E+03    0.15052E-01   -0.30901E-02   899   0.356E-01    0.580E-02
RMM:   4    -0.370250918888E+03    0.11843E-02   -0.30288E-03   674   0.138E-01    0.306E-02
RMM:   5    -0.370250925279E+03   -0.63910E-05   -0.79379E-04   511   0.503E-02
  42 T=  4038. E= -.33510761E+03 F= -.37025093E+03 E0= -.36690564E+03  EK= 0.32880E+02 SP= 0.18E+01 SK= 0.51E+00
       N       E                     dE             d eps       ncg     rms          rms(c)
RMM:   1    -0.369899227321E+03   -0.36990E+03   -0.29454E+00   795   0.651E+00    0.220E-01
RMM:   2    -0.370003106508E+03   -0.10388E+00   -0.77157E-01   933   0.160E+00    0.108E-01
RMM:   3    -0.369980930368E+03    0.22176E-01   -0.66871E-02   918   0.438E-01    0.662E-02
RMM:   4    -0.369978990855E+03    0.19395E-02   -0.36236E-03   714   0.176E-01    0.472E-02
RMM:   5    -0.369979032455E+03   -0.41600E-04   -0.11317E-03   532   0.568E-02    0.249E-02
RMM:   6    -0.369978985846E+03    0.46609E-04   -0.15333E-04   412   0.385E-02
  43 T=  3895. E= -.33509439E+03 F= -.36997899E+03 E0= -.36663355E+03  EK= 0.31718E+02 SP= 0.27E+01 SK= 0.50E+00
       N       E                     dE             d eps       ncg     rms          rms(c)
RMM:   1    -0.369388530263E+03   -0.36939E+03   -0.24579E+00   780   0.614E+00    0.205E-01
RMM:   2    -0.369460862958E+03   -0.72333E-01   -0.73447E-01   937   0.145E+00    0.126E-01
RMM:   3    -0.369440378850E+03    0.20484E-01   -0.41730E-02   940   0.435E-01    0.667E-02
RMM:   4    -0.369438647226E+03    0.17316E-02   -0.37441E-03   714   0.156E-01    0.452E-02
RMM:   5    -0.369438624019E+03    0.23208E-04   -0.99638E-04   541   0.556E-02
  44 T=  3726. E= -.33507955E+03 F= -.36943862E+03 E0= -.36608988E+03  EK= 0.30344E+02 SP= 0.36E+01 SK= 0.46E+00
       N       E                     dE             d eps       ncg     rms          rms(c)
RMM:   1    -0.368814910951E+03   -0.36881E+03   -0.24906E+00   902   0.398E+00    0.130E-01
RMM:   2    -0.368789361355E+03    0.25550E-01   -0.19668E-01   951   0.828E-01    0.810E-02
RMM:   3    -0.368782076296E+03    0.72851E-02   -0.60408E-02   878   0.329E-01    0.445E-02
RMM:   4    -0.368781863349E+03    0.21295E-03   -0.38478E-03   645   0.102E-01    0.306E-02
RMM:   5    -0.368781770331E+03    0.93018E-04   -0.46975E-04   473   0.503E-02
  45 T=  3554. E= -.33506317E+03 F= -.36878177E+03 E0= -.36542793E+03  EK= 0.28942E+02 SP= 0.44E+01 SK= 0.39E+00
       N       E                     dE             d eps       ncg     rms          rms(c)
RMM:   1    -0.368128441151E+03   -0.36813E+03   -0.22806E+00   816   0.549E+00    0.204E-01
RMM:   2    -0.368187882705E+03   -0.59442E-01   -0.51987E-01   942   0.128E+00    0.119E-01
RMM:   3    -0.368172716528E+03    0.15166E-01   -0.41755E-02   907   0.368E-01    0.777E-02
RMM:   4    -0.368171426598E+03    0.12899E-02   -0.25676E-03   665   0.144E-01    0.552E-02
RMM:   5    -0.368171422010E+03    0.45883E-05   -0.91082E-04   537   0.523E-02
  46 T=  3401. E= -.33504620E+03 F= -.36817142E+03 E0= -.36481213E+03  EK= 0.27700E+02 SP= 0.51E+01 SK= 0.29E+00
       N       E                     dE             d eps       ncg     rms          rms(c)
RMM:   1    -0.367688239516E+03   -0.36769E+03   -0.24968E+00   787   0.627E+00    0.248E-01
RMM:   2    -0.367772602725E+03   -0.84363E-01   -0.61341E-01   929   0.156E+00    0.162E-01
RMM:   3    -0.367758507625E+03    0.14095E-01   -0.41011E-02   929   0.408E-01    0.102E-01
RMM:   4    -0.367756931043E+03    0.15766E-02   -0.33443E-03   732   0.165E-01    0.580E-02
RMM:   5    -0.367756933876E+03   -0.28325E-05   -0.11241E-03   553   0.562E-02    0.306E-02
RMM:   6    -0.367756891515E+03    0.42361E-04   -0.12283E-04   391   0.381E-02
  47 T=  3288. E= -.33503313E+03 F= -.36775689E+03 E0= -.36439319E+03  EK= 0.26774E+02 SP= 0.58E+01 SK= 0.19E+00
       N       E                     dE             d eps       ncg     rms          rms(c)
RMM:   1    -0.367619701677E+03   -0.36762E+03   -0.18246E+00   723   0.562E+00    0.213E-01
RMM:   2    -0.367665825530E+03   -0.46124E-01   -0.56010E-01   919   0.135E+00    0.830E-02
RMM:   3    -0.367650039972E+03    0.15786E-01   -0.42820E-02   957   0.414E-01    0.564E-02
RMM:   4    -0.367648892889E+03    0.11471E-02   -0.31238E-03   690   0.139E-01    0.409E-02
RMM:   5    -0.367648862764E+03    0.30125E-04   -0.77228E-04   521   0.510E-02
  48 T=  3227. E= -.33502753E+03 F= -.36764886E+03 E0= -.36428309E+03  EK= 0.26278E+02 SP= 0.62E+01 SK= 0.10E+00
       N       E                     dE             d eps       ncg     rms          rms(c)
RMM:   1    -0.367905902310E+03   -0.36791E+03   -0.14448E+00   892   0.343E+00    0.104E-01
RMM:   2    -0.367903339455E+03    0.25629E-02   -0.15446E-01   948   0.721E-01    0.799E-02
RMM:   3    -0.367898076445E+03    0.52630E-02   -0.56375E-02   875   0.275E-01    0.574E-02
RMM:   4    -0.367897673469E+03    0.40298E-03   -0.14649E-02   654   0.922E-02    0.332E-02
RMM:   5    -0.367897621227E+03    0.52242E-04   -0.33473E-04   452   0.433E-02
  49 T=  3225. E= -.33502828E+03 F= -.36789762E+03 E0= -.36453317E+03  EK= 0.26263E+02 SP= 0.66E+01 SK= 0.38E-01
       N       E                     dE             d eps       ncg     rms          rms(c)
RMM:   1    -0.368441014701E+03   -0.36844E+03   -0.14812E+00   787   0.482E+00    0.184E-01
RMM:   2    -0.368499804723E+03   -0.58790E-01   -0.48861E-01   944   0.118E+00    0.115E-01
RMM:   3    -0.368486031338E+03    0.13773E-01   -0.40536E-02   896   0.351E-01    0.743E-02
RMM:   4    -0.368484933579E+03    0.10978E-02   -0.24911E-03   659   0.145E-01    0.503E-02
RMM:   5    -0.368484957727E+03   -0.24148E-04   -0.86806E-04   520   0.507E-02
  50 T=  3279. E= -.33503394E+03 F= -.36848496E+03 E0= -.36512570E+03  EK= 0.26706E+02 SP= 0.67E+01 SK= 0.60E-02
       N       E                     dE             d eps       ncg     rms          rms(c)
RMM:   1    -0.369268183762E+03   -0.36927E+03   -0.20680E+00   773   0.579E+00    0.189E-01
RMM:   2    -0.369346007657E+03   -0.77824E-01   -0.55740E-01   921   0.146E+00    0.120E-01
RMM:   3    -0.369333858584E+03    0.12149E-01   -0.41213E-02   902   0.411E-01    0.861E-02
RMM:   4    -0.369332465724E+03    0.13929E-02   -0.31050E-03   715   0.157E-01    0.592E-02
RMM:   5    -0.369332462113E+03    0.36114E-05   -0.11578E-03   582   0.566E-02    0.280E-02
RMM:   6    -0.369332410483E+03    0.51630E-04   -0.15033E-04   394   0.370E-02
  51 T=  3380. E= -.33504411E+03 F= -.36933241E+03 E0= -.36598204E+03  EK= 0.27522E+02 SP= 0.68E+01 SK= 0.81E-03
       N       E                     dE             d eps       ncg     rms          rms(c)
RMM:   1    -0.370293586245E+03   -0.37029E+03   -0.17694E+00   728   0.555E+00    0.199E-01
RMM:   2    -0.370340695551E+03   -0.47109E-01   -0.56605E-01   926   0.129E+00    0.106E-01
RMM:   3    -0.370324605277E+03    0.16090E-01   -0.39442E-02   951   0.434E-01    0.630E-02
RMM:   4    -0.370323656577E+03    0.94870E-03   -0.44365E-03   707   0.144E-01    0.461E-02
RMM:   5    -0.370323573496E+03    0.83081E-04   -0.82928E-04   532   0.535E-02
  52 T=  3510. E= -.33505705E+03 F= -.37032357E+03 E0= -.36698498E+03  EK= 0.28586E+02 SP= 0.67E+01 SK= 0.14E-01
       N       E                     dE             d eps       ncg     rms          rms(c)
RMM:   1    -0.371359417934E+03   -0.37136E+03   -0.16756E+00   911   0.307E+00    0.103E-01
RMM:   2    -0.371335401843E+03    0.24016E-01   -0.12395E-01   954   0.721E-01    0.904E-02
RMM:   3    -0.371330426227E+03    0.49756E-02   -0.12170E-01   867   0.302E-01    0.585E-02
RMM:   4    -0.371330414782E+03    0.11445E-04   -0.29670E-03   690   0.914E-02    0.272E-02
RMM:   5    -0.371330329010E+03    0.85773E-04   -0.35818E-04   453   0.490E-02
  53 T=  3654. E= -.33506971E+03 F= -.37133033E+03 E0= -.36800493E+03  EK= 0.29757E+02 SP= 0.65E+01 SK= 0.33E-01
       N       E                     dE             d eps       ncg     rms          rms(c)
RMM:   1    -0.372197387982E+03   -0.37220E+03   -0.14068E+00   791   0.465E+00    0.169E-01
RMM:   2    -0.372249978131E+03   -0.52590E-01   -0.44168E-01   949   0.112E+00    0.111E-01
RMM:   3    -0.372236930528E+03    0.13048E-01   -0.28121E-02   901   0.337E-01    0.840E-02
RMM:   4    -0.372235927567E+03    0.10030E-02   -0.24668E-03   668   0.137E-01    0.580E-02
RMM:   5    -0.372235929300E+03   -0.17331E-05   -0.83606E-04   539   0.500E-02
  54 T=  3795. E= -.33508048E+03 F= -.37223593E+03 E0= -.36892322E+03  EK= 0.30901E+02 SP= 0.62E+01 SK= 0.51E-01
       N       E                     dE             d eps       ncg     rms          rms(c)
RMM:   1    -0.372876645551E+03   -0.37288E+03   -0.21517E+00   762   0.603E+00    0.179E-01
RMM:   2    -0.372962399875E+03   -0.85754E-01   -0.58813E-01   938   0.150E+00    0.948E-02
RMM:   3    -0.372949114379E+03    0.13285E-01   -0.45972E-02   922   0.406E-01    0.800E-02
RMM:   4    -0.372947762736E+03    0.13516E-02   -0.30296E-03   706   0.163E-01    0.559E-02
RMM:   5    -0.372947794042E+03   -0.31307E-04   -0.11304E-03   564   0.558E-02    0.281E-02
RMM:   6    -0.372947746236E+03    0.47806E-04   -0.14282E-04   397   0.398E-02
  55 T=  3918. E= -.33508817E+03 F= -.37294775E+03 E0= -.36964548E+03  EK= 0.31902E+02 SP= 0.59E+01 SK= 0.62E-01
       N       E                     dE             d eps       ncg     rms          rms(c)
RMM:   1    -0.373360086883E+03   -0.37336E+03   -0.19619E+00   739   0.596E+00    0.193E-01
RMM:   2    -0.373421849756E+03   -0.61763E-01   -0.63389E-01   929   0.139E+00    0.124E-01
RMM:   3    -0.373403111222E+03    0.18739E-01   -0.48614E-02   963   0.445E-01    0.905E-02
RMM:   4    -0.373401776978E+03    0.13342E-02   -0.38620E-03   726   0.152E-01    0.776E-02
RMM:   5    -0.373401698117E+03    0.78862E-04   -0.10301E-03   563   0.547E-02    0.484E-02
RMM:   6    -0.373401633514E+03    0.64603E-04   -0.14799E-04   404   0.361E-02
  56 T=  4012. E= -.33509313E+03 F= -.37340163E+03 E0= -.37010584E+03  EK= 0.32672E+02 SP= 0.56E+01 SK= 0.65E-01
       N       E                     dE             d eps       ncg     rms          rms(c)
RMM:   1    -0.373552380959E+03   -0.37355E+03   -0.16237E+00   873   0.383E+00    0.106E-01
RMM:   2    -0.373565765926E+03   -0.13385E-01   -0.36435E-01   962   0.844E-01    0.771E-02
RMM:   3    -0.373557496663E+03    0.82693E-02   -0.18520E-02   878   0.311E-01    0.571E-02
RMM:   4    -0.373557213070E+03    0.28359E-03   -0.27507E-03   666   0.101E-01    0.372E-02
RMM:   5    -0.373557144839E+03    0.68231E-04   -0.42560E-04   473   0.454E-02
  57 T=  4071. E= -.33509579E+03 F= -.37355714E+03 E0= -.37026296E+03  EK= 0.33150E+02 SP= 0.52E+01 SK= 0.62E-01
       N       E                     dE             d eps       ncg     rms          rms(c)
RMM:   1    -0.373327157436E+03   -0.37333E+03   -0.22705E+00   782   0.584E+00    0.195E-01
RMM:   2    -0.373415004022E+03   -0.87847E-01   -0.68071E-01   938   0.146E+00    0.178E-01
RMM:   3    -0.373396695682E+03    0.18308E-01   -0.49916E-02   949   0.428E-01    0.850E-02
RMM:   4    -0.373395218037E+03    0.14776E-02   -0.35617E-03   703   0.178E-01    0.639E-02
RMM:   5    -0.373395269588E+03   -0.51551E-04   -0.12341E-03   532   0.564E-02    0.428E-02
RMM:   6    -0.373395221893E+03    0.47694E-04   -0.16439E-04   408   0.412E-02
  58 T=  4090. E= -.33509552E+03 F= -.37339522E+03 E0= -.37009747E+03  EK= 0.33303E+02 SP= 0.49E+01 SK= 0.56E-01
       N       E                     dE             d eps       ncg     rms          rms(c)
RMM:   1    -0.372875246241E+03   -0.37288E+03   -0.18464E+00   784   0.536E+00    0.149E-01
RMM:   2    -0.372942389905E+03   -0.67144E-01   -0.64282E-01   929   0.127E+00    0.109E-01
RMM:   3    -0.372923049150E+03    0.19341E-01   -0.66521E-02   935   0.428E-01    0.730E-02
RMM:   4    -0.372921690061E+03    0.13591E-02   -0.35568E-03   723   0.152E-01    0.502E-02
RMM:   5    -0.372921662113E+03    0.27948E-04   -0.89922E-04   545   0.545E-02
  59 T=  4068. E= -.33509170E+03 F= -.37292166E+03 E0= -.36961553E+03  EK= 0.33128E+02 SP= 0.47E+01 SK= 0.50E-01
       N       E                     dE             d eps       ncg     rms          rms(c)
RMM:   1    -0.372183928359E+03   -0.37218E+03   -0.20498E+00   892   0.387E+00    0.118E-01
RMM:   2    -0.372182016093E+03    0.19123E-02   -0.22578E-01   950   0.830E-01    0.754E-02
RMM:   3    -0.372175081995E+03    0.69341E-02   -0.24976E-02   891   0.315E-01    0.700E-02
RMM:   4    -0.372174781724E+03    0.30027E-03   -0.28943E-03   663   0.103E-01    0.466E-02
RMM:   5    -0.372174707813E+03    0.73911E-04   -0.48528E-04   461   0.490E-02
  60 T=  4012. E= -.33508285E+03 F= -.37217471E+03 E0= -.36885633E+03  EK= 0.32669E+02 SP= 0.44E+01 SK= 0.47E-01
       N       E                     dE             d eps       ncg     rms          rms(c)
RMM:   1    -0.371183549272E+03   -0.37118E+03   -0.25085E+00   807   0.579E+00    0.193E-01
RMM:   2    -0.371255552862E+03   -0.72004E-01   -0.65057E-01   934   0.136E+00    0.103E-01
RMM:   3    -0.371235974991E+03    0.19578E-01   -0.49497E-02   906   0.426E-01    0.660E-02
RMM:   4    -0.371234502453E+03    0.14725E-02   -0.37058E-03   706   0.179E-01    0.493E-02
RMM:   5    -0.371234553508E+03   -0.51055E-04   -0.12343E-03   539   0.579E-02    0.309E-02
RMM:   6    -0.371234504233E+03    0.49275E-04   -0.17754E-04   410   0.416E-02
  61 T=  3931. E= -.33506941E+03 F= -.37123450E+03 E0= -.36790108E+03  EK= 0.32014E+02 SP= 0.41E+01 SK= 0.49E-01
       N       E                     dE             d eps       ncg     rms          rms(c)
RMM:   1    -0.370166427426E+03   -0.37017E+03   -0.24707E+00   795   0.620E+00    0.180E-01
RMM:   2    -0.370252099701E+03   -0.85672E-01   -0.78063E-01   930   0.145E+00    0.134E-01
RMM:   3    -0.370225164410E+03    0.26935E-01   -0.21978E-01   940   0.488E-01    0.713E-02
RMM:   4    -0.370223444769E+03    0.17196E-02   -0.47749E-03   735   0.181E-01    0.493E-02
RMM:   5    -0.370223425428E+03    0.19341E-04   -0.11577E-03   557   0.591E-02    0.294E-02
RMM:   6    -0.370223380773E+03    0.44655E-04   -0.15515E-04   410   0.366E-02
  62 T=  3843. E= -.33505525E+03 F= -.37022338E+03 E0= -.36687314E+03  EK= 0.31296E+02 SP= 0.38E+01 SK= 0.57E-01
       N       E                     dE             d eps       ncg     rms          rms(c)
RMM:   1    -0.369315749471E+03   -0.36932E+03   -0.26086E+00   905   0.394E+00    0.124E-01
RMM:   2    -0.369294540512E+03    0.21209E-01   -0.26325E-01   939   0.852E-01    0.935E-02
RMM:   3    -0.369288146467E+03    0.63940E-02   -0.19317E-02   873   0.379E-01    0.581E-02
RMM:   4    -0.369288318715E+03   -0.17225E-03   -0.47420E-03   715   0.105E-01    0.395E-02
RMM:   5    -0.369288156613E+03    0.16210E-03   -0.41315E-04   484   0.546E-02    0.296E-02
RMM:   6    -0.369288152639E+03    0.39739E-05   -0.18466E-04   392   0.290E-02
  63 T=  3767. E= -.33504302E+03 F= -.36928815E+03 E0= -.36592045E+03  EK= 0.30677E+02 SP= 0.35E+01 SK= 0.73E-01
       N       E                     dE             d eps       ncg     rms          rms(c)
RMM:   1    -0.368546158693E+03   -0.36855E+03   -0.18845E+00   836   0.442E+00    0.134E-01
RMM:   2    -0.368580296199E+03   -0.34138E-01   -0.46018E-01   945   0.105E+00    0.810E-02
RMM:   3    -0.368565824591E+03    0.14472E-01   -0.27543E-02   902   0.388E-01    0.358E-02
RMM:   4    -0.368565319617E+03    0.50497E-03   -0.44147E-03   695   0.124E-01    0.263E-02
RMM:   5    -0.368565214324E+03    0.10529E-03   -0.57275E-04   492   0.500E-02    0.182E-02
RMM:   6    -0.368565197617E+03    0.16707E-04   -0.11348E-04   385   0.305E-02
  64 T=  3721. E= -.33503481E+03 F= -.36856520E+03 E0= -.36518020E+03  EK= 0.30304E+02 SP= 0.31E+01 SK= 0.96E-01
       N       E                     dE             d eps       ncg     rms          rms(c)
RMM:   1    -0.368150345702E+03   -0.36815E+03   -0.15851E+00   890   0.346E+00    0.100E-01
RMM:   2    -0.368152043288E+03   -0.16976E-02   -0.19595E-01   949   0.761E-01    0.685E-02
RMM:   3    -0.368146198063E+03    0.58452E-02   -0.14417E-02   875   0.300E-01    0.465E-02
RMM:   4    -0.368146083634E+03    0.11443E-03   -0.26923E-03   664   0.934E-02    0.308E-02
RMM:   5    -0.368146010745E+03    0.72889E-04   -0.29794E-04   460   0.445E-02
  65 T=  3718. E= -.33503207E+03 F= -.36814601E+03 E0= -.36474459E+03  EK= 0.30280E+02 SP= 0.27E+01 SK= 0.13E+00
       N       E                     dE             d eps       ncg     rms          rms(c)
RMM:   1    -0.368014282682E+03   -0.36801E+03   -0.16705E+00   805   0.497E+00    0.175E-01
RMM:   2    -0.368077155437E+03   -0.62873E-01   -0.51674E-01   935   0.121E+00    0.137E-01
RMM:   3    -0.368061920045E+03    0.15235E-01   -0.35135E-02   934   0.373E-01    0.784E-02
RMM:   4    -0.368060688376E+03    0.12317E-02   -0.27856E-03   672   0.153E-01    0.575E-02
RMM:   5    -0.368060699402E+03   -0.11025E-04   -0.97689E-04   536   0.528E-02
  66 T=  3763. E= -.33503403E+03 F= -.36806070E+03 E0= -.36464434E+03  EK= 0.30640E+02 SP= 0.22E+01 SK= 0.16E+00
       N       E                     dE             d eps       ncg     rms          rms(c)
RMM:   1    -0.368207570442E+03   -0.36821E+03   -0.22179E+00   773   0.595E+00    0.196E-01
RMM:   2    -0.368303899225E+03   -0.96329E-01   -0.68858E-01   935   0.149E+00    0.142E-01
RMM:   3    -0.368284307431E+03    0.19592E-01   -0.75971E-02   929   0.426E-01    0.887E-02
RMM:   4    -0.368282657169E+03    0.16503E-02   -0.34938E-03   703   0.178E-01    0.619E-02
RMM:   5    -0.368282714447E+03   -0.57278E-04   -0.13328E-03   538   0.580E-02    0.420E-02
RMM:   6    -0.368282649905E+03    0.64542E-04   -0.18171E-04   420   0.403E-02
  67 T=  3851. E= -.33504012E+03 F= -.36828265E+03 E0= -.36485320E+03  EK= 0.31357E+02 SP= 0.17E+01 SK= 0.18E+00
       N       E                     dE             d eps       ncg     rms          rms(c)
RMM:   1    -0.368678019409E+03   -0.36868E+03   -0.21998E+00   773   0.604E+00    0.220E-01
RMM:   2    -0.368766077736E+03   -0.88058E-01   -0.82505E-01   931   0.142E+00    0.937E-02
RMM:   3    -0.368742151005E+03    0.23927E-01   -0.69814E-02   948   0.468E-01    0.600E-02
RMM:   4    -0.368740417110E+03    0.17339E-02   -0.44770E-03   709   0.167E-01    0.483E-02
RMM:   5    -0.368740411895E+03    0.52157E-05   -0.11422E-03   528   0.543E-02    0.389E-02
RMM:   6    -0.368740355679E+03    0.56216E-04   -0.15073E-04   416   0.343E-02
  68 T=  3972. E= -.33505120E+03 F= -.36874036E+03 E0= -.36530003E+03  EK= 0.32348E+02 SP= 0.11E+01 SK= 0.19E+00
       N       E                     dE             d eps       ncg     rms          rms(c)
RMM:   1    -0.369339770675E+03   -0.36934E+03   -0.22933E+00   891   0.404E+00    0.119E-01
RMM:   2    -0.369335219304E+03    0.45514E-02   -0.36329E-01   945   0.863E-01    0.943E-02
RMM:   3    -0.369326776941E+03    0.84424E-02   -0.19897E-02   888   0.349E-01    0.641E-02
RMM:   4    -0.369326621135E+03    0.15581E-03   -0.42181E-03   685   0.106E-01    0.320E-02
RMM:   5    -0.369326498084E+03    0.12305E-03   -0.50438E-04   487   0.521E-02    0.193E-02
RMM:   6    -0.369326492783E+03    0.53014E-05   -0.18004E-04   390   0.304E-02
  69 T=  4112. E= -.33506532E+03 F= -.36932649E+03 E0= -.36587753E+03  EK= 0.33487E+02 SP= 0.59E+00 SK= 0.19E+00
       N       E                     dE             d eps       ncg     rms          rms(c)
RMM:   1    -0.369895362509E+03   -0.36990E+03   -0.20228E+00   840   0.450E+00    0.140E-01
RMM:   2    -0.369925519541E+03   -0.30157E-01   -0.46849E-01   932   0.109E+00    0.935E-02
RMM:   3    -0.369910474394E+03    0.15045E-01   -0.29344E-02   895   0.410E-01    0.729E-02
RMM:   4    -0.369909717402E+03    0.75699E-03   -0.39226E-03   697   0.128E-01    0.537E-02
RMM:   5    -0.369909640691E+03    0.76711E-04   -0.73979E-04   509   0.542E-02
  70 T=  4251. E= -.33507884E+03 F= -.36990964E+03 E0= -.36645456E+03  EK= 0.34620E+02 SP= 0.46E-01 SK= 0.16E+00
       N       E                     dE             d eps       ncg     rms          rms(c)
RMM:   1    -0.370324959820E+03   -0.37032E+03   -0.17927E+00   828   0.466E+00    0.150E-01
RMM:   2    -0.370373853278E+03   -0.48893E-01   -0.48472E-01   952   0.107E+00    0.102E-01
RMM:   3    -0.370359274455E+03    0.14579E-01   -0.28183E-02   895   0.348E-01    0.623E-02
RMM:   4    -0.370358305124E+03    0.96933E-03   -0.31299E-03   657   0.131E-01    0.445E-02
RMM:   5    -0.370358271081E+03    0.34044E-04   -0.72127E-04   506   0.486E-02
  71 T=  4370. E= -.33508881E+03 F= -.37035827E+03 E0= -.36689982E+03  EK= 0.35585E+02 SP= -.44E+00 SK= 0.13E+00
       N       E                     dE             d eps       ncg     rms          rms(c)
RMM:   1    -0.370501351102E+03   -0.37050E+03   -0.23856E+00   785   0.612E+00    0.203E-01
RMM:   2    -0.370596492257E+03   -0.95141E-01   -0.76141E-01   934   0.148E+00    0.153E-01
RMM:   3    -0.370576018636E+03    0.20474E-01   -0.65730E-02   932   0.424E-01    0.960E-02
RMM:   4    -0.370574336474E+03    0.16822E-02   -0.36690E-03   696   0.180E-01    0.647E-02
RMM:   5    -0.370574364036E+03   -0.27562E-04   -0.13017E-03   573   0.572E-02    0.384E-02
RMM:   6    -0.370574304547E+03    0.59489E-04   -0.15163E-04   410   0.386E-02
  72 T=  4452. E= -.33509223E+03 F= -.37057430E+03 E0= -.36711539E+03  EK= 0.36254E+02 SP= -.86E+00 SK= 0.85E-01
       N       E                     dE             d eps       ncg     rms          rms(c)
RMM:   1    -0.370458578687E+03   -0.37046E+03   -0.23107E+00   761   0.626E+00    0.221E-01
RMM:   2    -0.370545915303E+03   -0.87337E-01   -0.82952E-01   929   0.150E+00    0.124E-01
RMM:   3    -0.370521349458E+03    0.24566E-01   -0.52505E-02   963   0.484E-01    0.696E-02
RMM:   4    -0.370519446807E+03    0.19027E-02   -0.50123E-03   724   0.173E-01    0.533E-02
RMM:   5    -0.370519403328E+03    0.43478E-04   -0.13303E-03   576   0.595E-02    0.309E-02
RMM:   6    -0.370519345835E+03    0.57494E-04   -0.18123E-04   414   0.345E-02
  73 T=  4490. E= -.33509117E+03 F= -.37051935E+03 E0= -.36706313E+03  EK= 0.36562E+02 SP= -.12E+01 SK= 0.47E-01
       N       E                     dE             d eps       ncg     rms          rms(c)
RMM:   1    -0.370218370694E+03   -0.37022E+03   -0.23925E+00   877   0.445E+00    0.133E-01
RMM:   2    -0.370231956672E+03   -0.13586E-01   -0.40771E-01   954   0.935E-01    0.880E-02
RMM:   3    -0.370219709656E+03    0.12247E-01   -0.26732E-02   893   0.357E-01    0.652E-02
RMM:   4    -0.370219113427E+03    0.59623E-03   -0.41032E-03   697   0.119E-01    0.403E-02
RMM:   5    -0.370219020919E+03    0.92508E-04   -0.64332E-04   493   0.505E-02
  74 T=  4485. E= -.33508629E+03 F= -.37021902E+03 E0= -.36676860E+03  EK= 0.36519E+02 SP= -.14E+01 SK= 0.19E-01
       N       E                     dE             d eps       ncg     rms          rms(c)
RMM:   1    -0.369654628619E+03   -0.36965E+03   -0.29881E+00   781   0.662E+00    0.241E-01
RMM:   2    -0.369767469744E+03   -0.11284E+00   -0.93354E-01   933   0.168E+00    0.152E-01
RMM:   3    -0.369742556569E+03    0.24913E-01   -0.10618E-01   952   0.481E-01    0.822E-02
RMM:   4    -0.369740323116E+03    0.22335E-02   -0.49852E-03   741   0.199E-01    0.568E-02
RMM:   5    -0.369740418605E+03   -0.95489E-04   -0.17826E-03   562   0.606E-02    0.404E-02
RMM:   6    -0.369740343403E+03    0.75202E-04   -0.23834E-04   431   0.412E-02
  75 T=  4444. E= -.33507790E+03 F= -.36974034E+03 E0= -.36629886E+03  EK= 0.36192E+02 SP= -.15E+01 SK= 0.43E-02
       N       E                     dE             d eps       ncg     rms          rms(c)
RMM:   1    -0.369100775096E+03   -0.36910E+03   -0.24072E+00   787   0.609E+00    0.193E-01
RMM:   2    -0.369184566739E+03   -0.83792E-01   -0.80571E-01   927   0.142E+00    0.128E-01
RMM:   3    -0.369158229930E+03    0.26337E-01   -0.80930E-02   927   0.497E-01    0.837E-02
RMM:   4    -0.369156496641E+03    0.17333E-02   -0.69707E-03   738   0.175E-01    0.622E-02
RMM:   5    -0.369156350861E+03    0.14578E-03   -0.12887E-03   555   0.623E-02    0.379E-02
RMM:   6    -0.369156287665E+03    0.63197E-04   -0.20532E-04   433   0.376E-02
  76 T=  4379. E= -.33506997E+03 F= -.36915629E+03 E0= -.36572664E+03  EK= 0.35659E+02 SP= -.16E+01 SK= 0.29E-06
       N       E                     dE             d eps       ncg     rms          rms(c)
RMM:   1    -0.368530283232E+03   -0.36853E+03   -0.23198E+00   890   0.398E+00    0.135E-01
RMM:   2    -0.368524588027E+03    0.56952E-02   -0.38234E-01   964   0.844E-01    0.116E-01
RMM:   3    -0.368514699831E+03    0.98882E-02   -0.22775E-02   880   0.342E-01    0.768E-02
RMM:   4    -0.368514438191E+03    0.26164E-03   -0.50987E-03   666   0.108E-01    0.514E-02
RMM:   5    -0.368514274556E+03    0.16364E-03   -0.66828E-04   496   0.538E-02    0.393E-02
RMM:   6    -0.368514250994E+03    0.23562E-04   -0.18919E-04   398   0.306E-02
  77 T=  4296. E= -.33506403E+03 F= -.36851425E+03 E0= -.36509870E+03  EK= 0.34983E+02 SP= -.15E+01 SK= 0.28E-02
       N       E                     dE             d eps       ncg     rms          rms(c)
RMM:   1    -0.367806300971E+03   -0.36781E+03   -0.18315E+00   832   0.452E+00    0.156E-01
RMM:   2    -0.367847910502E+03   -0.41610E-01   -0.50347E-01   948   0.107E+00    0.106E-01
RMM:   3    -0.367831261792E+03    0.16649E-01   -0.30277E-02   907   0.381E-01    0.531E-02
RMM:   4    -0.367830615175E+03    0.64662E-03   -0.49911E-03   688   0.126E-01    0.331E-02
RMM:   5    -0.367830498289E+03    0.11689E-03   -0.74865E-04   504   0.499E-02    0.235E-02
RMM:   6    -0.367830471045E+03    0.27244E-04   -0.13111E-04   394   0.315E-02
  78 T=  4200. E= -.33505944E+03 F= -.36783047E+03 E0= -.36443036E+03  EK= 0.34201E+02 SP= -.14E+01 SK= 0.85E-02
       N       E                     dE             d eps       ncg     rms          rms(c)
RMM:   1    -0.367135071315E+03   -0.36714E+03   -0.20690E+00   909   0.345E+00    0.121E-01
RMM:   2    -0.367114835433E+03    0.20236E-01   -0.17827E-01   951   0.729E-01    0.121E-01
RMM:   3    -0.367109160440E+03    0.56750E-02   -0.14822E-02   871   0.306E-01    0.908E-02
RMM:   4    -0.367109130263E+03    0.30178E-04   -0.40388E-03   694   0.927E-02    0.467E-02
RMM:   5    -0.367108969654E+03    0.16061E-03   -0.40701E-04   463   0.500E-02    0.309E-02
RMM:   6    -0.367108952497E+03    0.17157E-04   -0.14229E-04   388   0.308E-02
  79 T=  4095. E= -.33505329E+03 F= -.36710895E+03 E0= -.36372471E+03  EK= 0.33344E+02 SP= -.13E+01 SK= 0.13E-01
       N       E                     dE             d eps       ncg     rms          rms(c)
RMM:   1    -0.366395955302E+03   -0.36640E+03   -0.22893E+00   896   0.368E+00    0.117E-01
RMM:   2    -0.366381558236E+03    0.14397E-01   -0.27445E-01   945   0.838E-01    0.601E-02
RMM:   3    -0.366371963680E+03    0.95946E-02   -0.22180E-02   860   0.354E-01    0.464E-02
RMM:   4    -0.366371848119E+03    0.11556E-03   -0.52923E-03   666   0.107E-01    0.331E-02
RMM:   5    -0.366371673821E+03    0.17430E-03   -0.60304E-04   465   0.518E-02    0.238E-02
RMM:   6    -0.366371659269E+03    0.14552E-04   -0.15912E-04   399   0.301E-02
  80 T=  3986. E= -.33504418E+03 F= -.36637166E+03 E0= -.36300304E+03  EK= 0.32458E+02 SP= -.11E+01 SK= 0.15E-01
       N       E                     dE             d eps       ncg     rms          rms(c)
RMM:   1    -0.365705814956E+03   -0.36571E+03   -0.20627E+00   911   0.339E+00    0.117E-01
RMM:   2    -0.365683733902E+03    0.22081E-01   -0.16311E-01   950   0.726E-01    0.596E-02
RMM:   3    -0.365678426135E+03    0.53078E-02   -0.14489E-02   859   0.315E-01    0.316E-02
RMM:   4    -0.365678621754E+03   -0.19562E-03   -0.44053E-03   660   0.902E-02    0.183E-02
RMM:   5    -0.365678475874E+03    0.14588E-03   -0.42410E-04   460   0.498E-02    0.127E-02
RMM:   6    -0.365678481471E+03   -0.55968E-05   -0.18277E-04   391   0.265E-02
  81 T=  3884. E= -.33503324E+03 F= -.36567848E+03 E0= -.36232484E+03  EK= 0.31625E+02 SP= -.99E+00 SK= 0.12E-01
       N       E                     dE             d eps       ncg     rms          rms(c)
RMM:   1    -0.365149597864E+03   -0.36515E+03   -0.19321E+00   912   0.309E+00    0.112E-01
RMM:   2    -0.365125104365E+03    0.24493E-01   -0.13630E-01   955   0.694E-01    0.556E-02
RMM:   3    -0.365120450475E+03    0.46539E-02   -0.12339E-02   858   0.295E-01    0.412E-02
RMM:   4    -0.365120589475E+03   -0.13900E-03   -0.34932E-03   641   0.854E-02    0.272E-02
RMM:   5    -0.365120467530E+03    0.12194E-03   -0.34371E-04   453   0.463E-02    0.177E-02
RMM:   6    -0.365120466643E+03    0.88771E-06   -0.13913E-04   383   0.263E-02
  82 T=  3801. E= -.33502312E+03 F= -.36512047E+03 E0= -.36178104E+03  EK= 0.30953E+02 SP= -.86E+00 SK= 0.75E-02
       N       E                     dE             d eps       ncg     rms          rms(c)
RMM:   1    -0.364812940754E+03   -0.36481E+03   -0.18245E+00   919   0.300E+00    0.109E-01
RMM:   2    -0.364791308650E+03    0.21632E-01   -0.12367E-01   939   0.680E-01    0.544E-02
RMM:   3    -0.364787243719E+03    0.40649E-02   -0.11712E-02   851   0.295E-01    0.304E-02
RMM:   4    -0.364787338526E+03   -0.94807E-04   -0.28881E-03   649   0.839E-02    0.193E-02
RMM:   5    -0.364787248807E+03    0.89719E-04   -0.27712E-04   455   0.463E-02
  83 T=  3750. E= -.33501699E+03 F= -.36478725E+03 E0= -.36146123E+03  EK= 0.30541E+02 SP= -.77E+00 SK= 0.26E-02
       N       E                     dE             d eps       ncg     rms          rms(c)
RMM:   1    -0.364706605789E+03   -0.36471E+03   -0.16570E+00   838   0.440E+00    0.133E-01
RMM:   2    -0.364740555537E+03   -0.33950E-01   -0.35528E-01   936   0.101E+00    0.813E-02
RMM:   3    -0.364730814303E+03    0.97412E-02   -0.25034E-02   899   0.319E-01    0.523E-02
RMM:   4    -0.364730135341E+03    0.67896E-03   -0.23592E-03   643   0.125E-01    0.330E-02
RMM:   5    -0.364730133016E+03    0.23250E-05   -0.58061E-04   475   0.462E-02
  84 T=  3739. E= -.33501612E+03 F= -.36473013E+03 E0= -.36141653E+03  EK= 0.30448E+02 SP= -.73E+00 SK= 0.11E-03
       N       E                     dE             d eps       ncg     rms          rms(c)
RMM:   1    -0.364885590208E+03   -0.36489E+03   -0.17881E+00   768   0.556E+00    0.158E-01
RMM:   2    -0.364955431795E+03   -0.69842E-01   -0.51658E-01   929   0.139E+00    0.874E-02
RMM:   3    -0.364943750106E+03    0.11682E-01   -0.35374E-02   909   0.370E-01    0.550E-02
RMM:   4    -0.364942648180E+03    0.11019E-02   -0.24899E-03   682   0.150E-01    0.424E-02
RMM:   5    -0.364942676965E+03   -0.28785E-04   -0.78743E-04   517   0.509E-02
  85 T=  3766. E= -.33502014E+03 F= -.36494268E+03 E0= -.36164006E+03  EK= 0.30668E+02 SP= -.75E+00 SK= 0.83E-03
       N       E                     dE             d eps       ncg     rms          rms(c)
RMM:   1    -0.365290345416E+03   -0.36529E+03   -0.22179E+00   748   0.641E+00    0.192E-01
RMM:   2    -0.365375612939E+03   -0.85268E-01   -0.51773E-01   916   0.157E+00    0.964E-02
RMM:   3    -0.365365858772E+03    0.97542E-02   -0.37655E-02   930   0.410E-01    0.716E-02
RMM:   4    -0.365364531275E+03    0.13275E-02   -0.26854E-03   725   0.157E-01    0.517E-02
RMM:   5    -0.365364549172E+03   -0.17898E-04   -0.87494E-04   525   0.544E-02
  86 T=  3824. E= -.33502746E+03 F= -.36536455E+03 E0= -.36207094E+03  EK= 0.31140E+02 SP= -.81E+00 SK= 0.37E-02
       N       E                     dE             d eps       ncg     rms          rms(c)
RMM:   1    -0.365815185381E+03   -0.36582E+03   -0.25065E+00   753   0.681E+00    0.219E-01
RMM:   2    -0.365915105287E+03   -0.99920E-01   -0.62525E-01   922   0.168E+00    0.978E-02
RMM:   3    -0.365902195768E+03    0.12910E-01   -0.53351E-02   921   0.439E-01    0.630E-02
RMM:   4    -0.365900587984E+03    0.16078E-02   -0.32394E-03   718   0.172E-01    0.445E-02
RMM:   5    -0.365900635935E+03   -0.47951E-04   -0.10641E-03   544   0.566E-02    0.260E-02
RMM:   6    -0.365900596405E+03    0.39530E-04   -0.13415E-04   405   0.383E-02
  87 T=  3900. E= -.33503635E+03 F= -.36590060E+03 E0= -.36261341E+03  EK= 0.31759E+02 SP= -.90E+00 SK= 0.69E-02
       N       E                     dE             d eps       ncg     rms          rms(c)
RMM:   1    -0.366396841696E+03   -0.36640E+03   -0.19277E+00   761   0.576E+00    0.197E-01
RMM:   2    -0.366466845665E+03   -0.70004E-01   -0.68421E-01   918   0.141E+00    0.109E-01
RMM:   3    -0.366446117135E+03    0.20729E-01   -0.46553E-02   950   0.474E-01    0.680E-02
RMM:   4    -0.366444862185E+03    0.12550E-02   -0.42306E-03   730   0.153E-01    0.524E-02
RMM:   5    -0.366444789972E+03    0.72213E-04   -0.80665E-04   549   0.558E-02
  88 T=  3980. E= -.33504616E+03 F= -.36644479E+03 E0= -.36316085E+03  EK= 0.32407E+02 SP= -.10E+01 SK= 0.86E-02
       N       E                     dE             d eps       ncg     rms          rms(c)
RMM:   1    -0.366937493692E+03   -0.36694E+03   -0.22108E+00   917   0.365E+00    0.127E-01
RMM:   2    -0.366911616249E+03    0.25877E-01   -0.15800E-01   939   0.801E-01    0.117E-01
RMM:   3    -0.366906374780E+03    0.52415E-02   -0.63783E-02   872   0.333E-01    0.694E-02
RMM:   4    -0.366906150072E+03    0.22471E-03   -0.43195E-03   733   0.103E-01    0.406E-02
RMM:   5    -0.366906046459E+03    0.10361E-03   -0.40175E-04   474   0.485E-02    0.234E-02
RMM:   6    -0.366906037044E+03    0.94149E-05   -0.11402E-04   384   0.317E-02
  89 T=  4050. E= -.33505301E+03 F= -.36690604E+03 E0= -.36362175E+03  EK= 0.32982E+02 SP= -.11E+01 SK= 0.82E-02
       N       E                     dE             d eps       ncg     rms          rms(c)
RMM:   1    -0.367261610587E+03   -0.36726E+03   -0.20757E+00   910   0.332E+00    0.130E-01
RMM:   2    -0.367241378979E+03    0.20232E-01   -0.16857E-01   946   0.775E-01    0.970E-02
RMM:   3    -0.367235907007E+03    0.54720E-02   -0.15908E-02   859   0.326E-01    0.731E-02
RMM:   4    -0.367235794504E+03    0.11250E-03   -0.35066E-03   702   0.995E-02    0.473E-02
RMM:   5    -0.367235670313E+03    0.12419E-03   -0.40701E-04   480   0.488E-02    0.324E-02
RMM:   6    -0.367235647339E+03    0.22974E-04   -0.14725E-04   394   0.314E-02
  90 T=  4104. E= -.33505332E+03 F= -.36723565E+03 E0= -.36394681E+03  EK= 0.33423E+02 SP= -.12E+01 SK= 0.61E-02
       N       E                     dE             d eps       ncg     rms          rms(c)
RMM:   1    -0.367468945014E+03   -0.36747E+03   -0.20101E+00   908   0.350E+00    0.119E-01
RMM:   2    -0.367452430066E+03    0.16515E-01   -0.17702E-01   951   0.779E-01    0.959E-02
RMM:   3    -0.367446791306E+03    0.56388E-02   -0.16263E-02   865   0.329E-01    0.636E-02
RMM:   4    -0.367446790164E+03    0.11422E-05   -0.37059E-03   686   0.951E-02    0.428E-02
RMM:   5    -0.367446655477E+03    0.13469E-03   -0.38777E-04   461   0.505E-02    0.299E-02
RMM:   6    -0.367446641266E+03    0.14211E-04   -0.16989E-04   399   0.318E-02
  91 T=  4142. E= -.33504858E+03 F= -.36744664E+03 E0= -.36414903E+03  EK= 0.33730E+02 SP= -.13E+01 SK= 0.34E-02
       N       E                     dE             d eps       ncg     rms          rms(c)
RMM:   1    -0.367639566988E+03   -0.36764E+03   -0.17914E+00   918   0.294E+00    0.114E-01
RMM:   2    -0.367615772767E+03    0.23794E-01   -0.11292E-01   956   0.679E-01    0.529E-02
RMM:   3    -0.367612360974E+03    0.34118E-02   -0.11646E-02   843   0.296E-01    0.268E-02
RMM:   4    -0.367612535314E+03   -0.17434E-03   -0.32273E-03   633   0.835E-02    0.163E-02
RMM:   5    -0.367612431737E+03    0.10358E-03   -0.30060E-04   457   0.493E-02    0.106E-02
RMM:   6    -0.367612439211E+03   -0.74737E-05   -0.16304E-04   396   0.260E-02
  92 T=  4171. E= -.33504208E+03 F= -.36761244E+03 E0= -.36430224E+03  EK= 0.33964E+02 SP= -.14E+01 SK= 0.11E-02
       N       E                     dE             d eps       ncg     rms          rms(c)
RMM:   1    -0.367856526060E+03   -0.36786E+03   -0.18713E+00   913   0.323E+00    0.112E-01
RMM:   2    -0.367838944389E+03    0.17582E-01   -0.13689E-01   950   0.719E-01    0.767E-02
RMM:   3    -0.367834742044E+03    0.42023E-02   -0.13579E-02   845   0.305E-01    0.474E-02
RMM:   4    -0.367834774543E+03   -0.32499E-04   -0.30470E-03   672   0.900E-02    0.269E-02
RMM:   5    -0.367834679213E+03    0.95330E-04   -0.30237E-04   463   0.473E-02
  93 T=  4202. E= -.33503760E+03 F= -.36783468E+03 E0= -.36450888E+03  EK= 0.34218E+02 SP= -.14E+01 SK= 0.18E-04
       N       E                     dE             d eps       ncg     rms          rms(c)
RMM:   1    -0.368171487846E+03   -0.36817E+03   -0.18967E+00   855   0.454E+00    0.141E-01
RMM:   2    -0.368203664516E+03   -0.32177E-01   -0.38330E-01   946   0.102E+00    0.840E-02
RMM:   3    -0.368191913457E+03    0.11751E-01   -0.25611E-02   895   0.339E-01    0.406E-02
RMM:   4    -0.368191109358E+03    0.80410E-03   -0.26083E-03   667   0.128E-01    0.281E-02
RMM:   5    -0.368191105164E+03    0.41942E-05   -0.61142E-04   490   0.463E-02
  94 T=  4244. E= -.33503783E+03 F= -.36819111E+03 E0= -.36484811E+03  EK= 0.34558E+02 SP= -.14E+01 SK= 0.96E-03
       N       E                     dE             d eps       ncg     rms          rms(c)
RMM:   1    -0.368623862300E+03   -0.36862E+03   -0.24337E+00   795   0.595E+00    0.208E-01
RMM:   2    -0.368711473644E+03   -0.87611E-01   -0.73227E-01   935   0.146E+00    0.115E-01
RMM:   3    -0.368691363952E+03    0.20110E-01   -0.46952E-02   920   0.434E-01    0.718E-02
RMM:   4    -0.368689694303E+03    0.16696E-02   -0.39361E-03   709   0.181E-01    0.446E-02
RMM:   5    -0.368689750500E+03   -0.56197E-04   -0.12484E-03   546   0.585E-02    0.275E-02
RMM:   6    -0.368689704719E+03    0.45781E-04   -0.15599E-04   407   0.380E-02
  95 T=  4296. E= -.33504356E+03 F= -.36868970E+03 E0= -.36532936E+03  EK= 0.34983E+02 SP= -.13E+01 SK= 0.54E-02
       N       E                     dE             d eps       ncg     rms          rms(c)
RMM:   1    -0.369195725547E+03   -0.36920E+03   -0.24211E+00   789   0.595E+00    0.200E-01
RMM:   2    -0.369288620684E+03   -0.92895E-01   -0.87659E-01   937   0.145E+00    0.851E-02
RMM:   3    -0.369260868039E+03    0.27753E-01   -0.71434E-02   918   0.500E-01    0.571E-02
RMM:   4    -0.369259047465E+03    0.18206E-02   -0.57679E-03   721   0.171E-01    0.424E-02
RMM:   5    -0.369258982601E+03    0.64863E-04   -0.11472E-03   543   0.583E-02    0.282E-02
RMM:   6    -0.369258936529E+03    0.46073E-04   -0.14026E-04   414   0.333E-02
  96 T=  4348. E= -.33505335E+03 F= -.36925894E+03 E0= -.36588270E+03  EK= 0.35409E+02 SP= -.12E+01 SK= 0.16E-01
       N       E                     dE             d eps       ncg     rms          rms(c)
RMM:   1    -0.369801086015E+03   -0.36980E+03   -0.24239E+00   906   0.400E+00    0.134E-01
RMM:   2    -0.369788765660E+03    0.12320E-01   -0.26050E-01   952   0.836E-01    0.111E-01
RMM:   3    -0.369781290664E+03    0.74750E-02   -0.21307E-02   879   0.336E-01    0.813E-02
RMM:   4    -0.369781113021E+03    0.17764E-03   -0.45290E-03   673   0.106E-01    0.435E-02
RMM:   5    -0.369780985629E+03    0.12739E-03   -0.59627E-04   477   0.526E-02    0.309E-02
RMM:   6    -0.369780970385E+03    0.15244E-04   -0.15858E-04   385   0.300E-02
  97 T=  4385. E= -.33506227E+03 F= -.36978097E+03 E0= -.36639148E+03  EK= 0.35711E+02 SP= -.10E+01 SK= 0.33E-01
       N       E                     dE             d eps       ncg     rms          rms(c)
RMM:   1    -0.370135411961E+03   -0.37014E+03   -0.21076E+00   863   0.432E+00    0.156E-01
RMM:   2    -0.370155721079E+03   -0.20309E-01   -0.40263E-01   945   0.101E+00    0.948E-02
RMM:   3    -0.370144041093E+03    0.11680E-01   -0.28200E-02   849   0.363E-01    0.744E-02
RMM:   4    -0.370143385027E+03    0.65607E-03   -0.43035E-03   671   0.123E-01    0.507E-02
RMM:   5    -0.370143303802E+03    0.81225E-04   -0.79834E-04   492   0.505E-02
  98 T=  4393. E= -.33506650E+03 F= -.37014330E+03 E0= -.36674342E+03  EK= 0.35772E+02 SP= -.76E+00 SK= 0.60E-01
       N       E                     dE             d eps       ncg     rms          rms(c)
RMM:   1    -0.370258307115E+03   -0.37026E+03   -0.20743E+00   867   0.446E+00    0.160E-01
RMM:   2    -0.370288705468E+03   -0.30398E-01   -0.38974E-01   953   0.993E-01    0.128E-01
RMM:   3    -0.370277126743E+03    0.11579E-01   -0.26777E-02   893   0.336E-01    0.845E-02
RMM:   4    -0.370276398689E+03    0.72805E-03   -0.34950E-03   662   0.125E-01    0.446E-02
RMM:   5    -0.370276351650E+03    0.47038E-04   -0.79019E-04   496   0.510E-02
  99 T=  4362. E= -.33506504E+03 F= -.37027635E+03 E0= -.36686869E+03  EK= 0.35524E+02 SP= -.41E+00 SK= 0.93E-01
       N       E                     dE             d eps       ncg     rms          rms(c)
RMM:   1    -0.370104182660E+03   -0.37010E+03   -0.27143E+00   816   0.601E+00    0.200E-01
RMM:   2    -0.370182315917E+03   -0.78133E-01   -0.65022E-01   937   0.144E+00    0.126E-01
RMM:   3    -0.370165158076E+03    0.17158E-01   -0.55073E-02   907   0.422E-01    0.876E-02
RMM:   4    -0.370163729306E+03    0.14288E-02   -0.38267E-03   684   0.166E-01    0.593E-02
RMM:   5    -0.370163761183E+03   -0.31878E-04   -0.12250E-03   535   0.572E-02    0.358E-02
RMM:   6    -0.370163713516E+03    0.47667E-04   -0.16871E-04   397   0.390E-02
 100 T=  4293. E= -.33505883E+03 F= -.37016371E+03 E0= -.36675002E+03  EK= 0.34961E+02 SP= 0.17E-01 SK= 0.13E+00
       N       E                     dE             d eps       ncg     rms          rms(c)
RMM:   1    -0.369781730748E+03   -0.36978E+03   -0.22209E+00   802   0.569E+00    0.183E-01
RMM:   2    -0.369860888981E+03   -0.79158E-01   -0.75209E-01   939   0.138E+00    0.107E-01
RMM:   3    -0.369837714615E+03    0.23174E-01   -0.78374E-02   922   0.444E-01    0.892E-02
RMM:   4    -0.369835969121E+03    0.17455E-02   -0.49782E-03   725   0.164E-01    0.598E-02
RMM:   5    -0.369835971384E+03   -0.22629E-05   -0.15084E-03   535   0.570E-02    0.440E-02
RMM:   6    -0.369835895965E+03    0.75420E-04   -0.18354E-04   418   0.350E-02
 101 T=  4191. E= -.33505125E+03 F= -.36983590E+03 E0= -.36641718E+03  EK= 0.34131E+02 SP= 0.50E+00 SK= 0.16E+00
       N       E                     dE             d eps       ncg     rms          rms(c)
RMM:   1    -0.369377087407E+03   -0.36938E+03   -0.23284E+00   902   0.393E+00    0.136E-01
RMM:   2    -0.369364903899E+03    0.12184E-01   -0.24167E-01   946   0.815E-01    0.984E-02
RMM:   3    -0.369358938532E+03    0.59654E-02   -0.17861E-02   880   0.333E-01    0.605E-02
RMM:   4    -0.369358954165E+03   -0.15633E-04   -0.42139E-03   694   0.100E-01    0.377E-02
RMM:   5    -0.369358825130E+03    0.12903E-03   -0.45033E-04   471   0.490E-02    0.255E-02
RMM:   6    -0.369358816658E+03    0.84725E-05   -0.15125E-04   378   0.292E-02
 102 T=  4068. E= -.33504105E+03 F= -.36935882E+03 E0= -.36593517E+03  EK= 0.33128E+02 SP= 0.10E+01 SK= 0.17E+00
       N       E                     dE             d eps       ncg     rms          rms(c)
RMM:   1    -0.368818757516E+03   -0.36882E+03   -0.23100E+00   860   0.439E+00    0.139E-01
RMM:   2    -0.368834003711E+03   -0.15246E-01   -0.37958E-01   934   0.103E+00    0.904E-02
RMM:   3    -0.368822886443E+03    0.11117E-01   -0.27262E-02   881   0.390E-01    0.588E-02
RMM:   4    -0.368822450110E+03    0.43633E-03   -0.44820E-03   701   0.125E-01    0.401E-02
RMM:   5    -0.368822360388E+03    0.89723E-04   -0.71225E-04   482   0.525E-02
 103 T=  3938. E= -.33502810E+03 F= -.36882236E+03 E0= -.36539338E+03  EK= 0.32071E+02 SP= 0.16E+01 SK= 0.17E+00
       N       E                     dE             d eps       ncg     rms          rms(c)
RMM:   1    -0.368320925523E+03   -0.36832E+03   -0.22537E+00   862   0.463E+00    0.127E-01
RMM:   2    -0.368338864978E+03   -0.17939E-01   -0.33009E-01   952   0.101E+00    0.114E-01
RMM:   3    -0.368329768865E+03    0.90961E-02   -0.23728E-02   880   0.342E-01    0.781E-02
RMM:   4    -0.368329345049E+03    0.42382E-03   -0.37642E-03   661   0.121E-01    0.442E-02
RMM:   5    -0.368329267900E+03    0.77149E-04   -0.69794E-04   514   0.550E-02
 104 T=  3817. E= -.33501539E+03 F= -.36832927E+03 E0= -.36489429E+03  EK= 0.31086E+02 SP= 0.21E+01 SK= 0.16E+00
       N       E                     dE             d eps       ncg     rms          rms(c)
RMM:   1    -0.367926252218E+03   -0.36793E+03   -0.24996E+00   797   0.588E+00    0.187E-01
RMM:   2    -0.367999264057E+03   -0.73012E-01   -0.63923E-01   936   0.142E+00    0.115E-01
RMM:   3    -0.367982382628E+03    0.16881E-01   -0.40435E-02   910   0.409E-01    0.693E-02
RMM:   4    -0.367981114327E+03    0.12683E-02   -0.34563E-03   688   0.165E-01    0.477E-02
RMM:   5    -0.367981147375E+03   -0.33047E-04   -0.10700E-03   523   0.550E-02    0.283E-02
RMM:   6    -0.367981104080E+03    0.43294E-04   -0.14271E-04   405   0.381E-02
 105 T=  3720. E= -.33500532E+03 F= -.36798110E+03 E0= -.36453985E+03  EK= 0.30291E+02 SP= 0.26E+01 SK= 0.13E+00
       N       E                     dE             d eps       ncg     rms          rms(c)
RMM:   1    -0.367809378502E+03   -0.36781E+03   -0.21185E+00   794   0.575E+00    0.169E-01
RMM:   2    -0.367880092458E+03   -0.70714E-01   -0.67087E-01   932   0.137E+00    0.973E-02
RMM:   3    -0.367858941587E+03    0.21151E-01   -0.75356E-02   925   0.457E-01    0.680E-02
RMM:   4    -0.367857836965E+03    0.11046E-02   -0.44850E-03   726   0.151E-01    0.497E-02
RMM:   5    -0.367857769938E+03    0.67027E-04   -0.86619E-04   548   0.538E-02
 106 T=  3657. E= -.33500106E+03 F= -.36785777E+03 E0= -.36441057E+03  EK= 0.29778E+02 SP= 0.30E+01 SK= 0.96E-01
       N       E                     dE             d eps       ncg     rms          rms(c)
RMM:   1    -0.368003378613E+03   -0.36800E+03   -0.17969E+00   894   0.362E+00    0.113E-01
RMM:   2    -0.367996700511E+03    0.66781E-02   -0.17614E-01   954   0.764E-01    0.681E-02
RMM:   3    -0.367991218041E+03    0.54825E-02   -0.26104E-02   868   0.292E-01    0.489E-02
RMM:   4    -0.367991089899E+03    0.12814E-03   -0.27908E-03   654   0.949E-02    0.311E-02
RMM:   5    -0.367991019706E+03    0.70192E-04   -0.36405E-04   450   0.447E-02
 107 T=  3633. E= -.33500248E+03 F= -.36799102E+03 E0= -.36453921E+03  EK= 0.29582E+02 SP= 0.33E+01 SK= 0.64E-01
       N       E                     dE             d eps       ncg     rms          rms(c)
RMM:   1    -0.368295796861E+03   -0.36830E+03   -0.17991E+00   790   0.532E+00    0.196E-01
RMM:   2    -0.368362814979E+03   -0.67018E-01   -0.52276E-01   934   0.129E+00    0.111E-01
RMM:   3    -0.368348930655E+03    0.13884E-01   -0.52334E-02   910   0.381E-01    0.633E-02
RMM:   4    -0.368347894849E+03    0.10358E-02   -0.27132E-03   684   0.155E-01    0.447E-02
RMM:   5    -0.368347924823E+03   -0.29974E-04   -0.85645E-04   534   0.516E-02
 108 T=  3644. E= -.33500817E+03 F= -.36834792E+03 E0= -.36489382E+03  EK= 0.29674E+02 SP= 0.36E+01 SK= 0.39E-01
       N       E                     dE             d eps       ncg     rms          rms(c)
RMM:   1    -0.368752195766E+03   -0.36875E+03   -0.24991E+00   767   0.653E+00    0.206E-01
RMM:   2    -0.368851355668E+03   -0.99160E-01   -0.63635E-01   925   0.165E+00    0.168E-01
RMM:   3    -0.368838418481E+03    0.12937E-01   -0.68202E-02   944   0.452E-01    0.833E-02
RMM:   4    -0.368836910937E+03    0.15075E-02   -0.33463E-03   736   0.176E-01    0.604E-02
RMM:   5    -0.368836946939E+03   -0.36003E-04   -0.11981E-03   547   0.566E-02    0.371E-02
RMM:   6    -0.368836891636E+03    0.55304E-04   -0.15383E-04   412   0.401E-02
 109 T=  3679. E= -.33501561E+03 F= -.36883689E+03 E0= -.36538376E+03  EK= 0.29961E+02 SP= 0.38E+01 SK= 0.20E-01
       N       E                     dE             d eps       ncg     rms          rms(c)
RMM:   1    -0.369296124180E+03   -0.36930E+03   -0.21629E+00   740   0.642E+00    0.195E-01
RMM:   2    -0.369364770851E+03   -0.68647E-01   -0.69823E-01   920   0.146E+00    0.118E-01
RMM:   3    -0.369343836896E+03    0.20934E-01   -0.60656E-02   969   0.494E-01    0.661E-02
RMM:   4    -0.369342405933E+03    0.14310E-02   -0.45820E-03   729   0.172E-01    0.475E-02
RMM:   5    -0.369342353039E+03    0.52894E-04   -0.91600E-04   544   0.556E-02
 110 T=  3723. E= -.33502358E+03 F= -.36934235E+03 E0= -.36589364E+03  EK= 0.30321E+02 SP= 0.40E+01 SK= 0.91E-02
       N       E                     dE             d eps       ncg     rms          rms(c)
RMM:   1    -0.369795181436E+03   -0.36980E+03   -0.19614E+00   898   0.368E+00    0.119E-01
RMM:   2    -0.369774907665E+03    0.20274E-01   -0.17127E-01   945   0.824E-01    0.842E-02
RMM:   3    -0.369768951183E+03    0.59565E-02   -0.94911E-02   881   0.340E-01    0.567E-02
RMM:   4    -0.369768830424E+03    0.12076E-03   -0.42455E-03   708   0.103E-01    0.330E-02
RMM:   5    -0.369768741719E+03    0.88705E-04   -0.43156E-04   473   0.514E-02
 111 T=  3764. E= -.33502861E+03 F= -.36976874E+03 E0= -.36632786E+03  EK= 0.30655E+02 SP= 0.41E+01 SK= 0.30E-02
       N       E                     dE             d eps       ncg     rms          rms(c)
RMM:   1    -0.370015831728E+03   -0.37002E+03   -0.18681E+00   771   0.563E+00    0.186E-01
RMM:   2    -0.370088706232E+03   -0.72875E-01   -0.59656E-01   946   0.138E+00    0.143E-01
RMM:   3    -0.370073523062E+03    0.15183E-01   -0.37588E-02   921   0.406E-01    0.845E-02
RMM:   4    -0.370072190638E+03    0.13324E-02   -0.30537E-03   710   0.166E-01    0.646E-02
RMM:   5    -0.370072215347E+03   -0.24709E-04   -0.10999E-03   554   0.543E-02    0.394E-02
RMM:   6    -0.370072162489E+03    0.52858E-04   -0.14442E-04   401   0.368E-02
 112 T=  3796. E= -.33502810E+03 F= -.37007216E+03 E0= -.36664152E+03  EK= 0.30916E+02 SP= 0.41E+01 SK= 0.40E-03
       N       E                     dE             d eps       ncg     rms          rms(c)
RMM:   1    -0.370210106190E+03   -0.37021E+03   -0.19748E+00   746   0.608E+00    0.176E-01
RMM:   2    -0.370288788626E+03   -0.78682E-01   -0.65677E-01   920   0.149E+00    0.108E-01
RMM:   3    -0.370269754073E+03    0.19035E-01   -0.84731E-02   971   0.461E-01    0.652E-02
RMM:   4    -0.370268312292E+03    0.14418E-02   -0.35251E-03   721   0.172E-01    0.451E-02
RMM:   5    -0.370268342442E+03   -0.30149E-04   -0.10453E-03   551   0.552E-02    0.285E-02
RMM:   6    -0.370268299559E+03    0.42883E-04   -0.13366E-04   401   0.361E-02
 113 T=  3820. E= -.33502440E+03 F= -.37026830E+03 E0= -.36684935E+03  EK= 0.31111E+02 SP= 0.41E+01 SK= 0.11E-03
       N       E                     dE             d eps       ncg     rms          rms(c)
RMM:   1    -0.370428990038E+03   -0.37043E+03   -0.17066E+00   898   0.356E+00    0.109E-01
RMM:   2    -0.370423360003E+03    0.56300E-02   -0.22038E-01   943   0.788E-01    0.897E-02
RMM:   3    -0.370418412742E+03    0.49473E-02   -0.16191E-02   875   0.322E-01    0.620E-02
RMM:   4    -0.370418268900E+03    0.14384E-03   -0.27183E-03   686   0.973E-02    0.438E-02
RMM:   5    -0.370418182492E+03    0.86408E-04   -0.32580E-04   464   0.478E-02
[...]
RMM:   4    -0.367236168875E+03   -0.18106E-03   -0.47493E-03   691   0.959E-02    0.236E-02
RMM:   5    -0.367236015480E+03    0.15340E-03   -0.43458E-04   466   0.503E-02    0.172E-02
RMM:   6    -0.367236017349E+03   -0.18690E-05   -0.16548E-04   393   0.256E-02
3972 T=  4006. E= -.33241812E+03 F= -.36723602E+03 E0= -.36376234E+03  EK= 0.32626E+02 SP= 0.18E+01 SK= 0.39E+00
       N       E                     dE             d eps       ncg     rms          rms(c)
RMM:   1    -0.366907087716E+03   -0.36691E+03   -0.17389E+00   911   0.303E+00    0.101E-01
RMM:   2    -0.366888766832E+03    0.18321E-01   -0.12421E-01   949   0.681E-01    0.542E-02
RMM:   3    -0.366884953511E+03    0.38133E-02   -0.11349E-02   851   0.294E-01    0.344E-02
RMM:   4    -0.366885116703E+03   -0.16319E-03   -0.32291E-03   640   0.832E-02    0.188E-02
RMM:   5    -0.366885014476E+03    0.10223E-03   -0.30695E-04   464   0.472E-02    0.138E-02
RMM:   6    -0.366885016664E+03   -0.21879E-05   -0.96872E-05   383   0.237E-02
3973 T=  3868. E= -.33240899E+03 F= -.36688502E+03 E0= -.36340614E+03  EK= 0.31500E+02 SP= 0.26E+01 SK= 0.38E+00
       N       E                     dE             d eps       ncg     rms          rms(c)
RMM:   1    -0.366774563805E+03   -0.36677E+03   -0.14433E+00   915   0.282E+00    0.889E-02
RMM:   2    -0.366762842780E+03    0.11721E-01   -0.11521E-01   941   0.623E-01    0.489E-02
RMM:   3    -0.366759184014E+03    0.36588E-02   -0.10308E-02   859   0.266E-01    0.319E-02
RMM:   4    -0.366759287357E+03   -0.10334E-03   -0.26667E-03   613   0.762E-02    0.177E-02
RMM:   5    -0.366759200394E+03    0.86963E-04   -0.22871E-04   433   0.427E-02
3974 T=  3763. E= -.33240545E+03 F= -.36675920E+03 E0= -.36327658E+03  EK= 0.30643E+02 SP= 0.34E+01 SK= 0.35E+00
       N       E                     dE             d eps       ncg     rms          rms(c)
RMM:   1    -0.366808043717E+03   -0.36681E+03   -0.16344E+00   816   0.456E+00    0.133E-01
RMM:   2    -0.366851940933E+03   -0.43897E-01   -0.42286E-01   946   0.107E+00    0.922E-02
RMM:   3    -0.366839122650E+03    0.12818E-01   -0.25516E-02   905   0.336E-01    0.493E-02
RMM:   4    -0.366838348096E+03    0.77455E-03   -0.28791E-03   642   0.133E-01    0.335E-02
RMM:   5    -0.366838346120E+03    0.19764E-05   -0.68505E-04   487   0.490E-02
3975 T=  3690. E= -.33240642E+03 F= -.36683835E+03 E0= -.36335402E+03  EK= 0.30047E+02 SP= 0.41E+01 SK= 0.30E+00
       N       E                     dE             d eps       ncg     rms          rms(c)
RMM:   1    -0.366980690105E+03   -0.36698E+03   -0.21974E+00   782   0.594E+00    0.161E-01
RMM:   2    -0.367070816450E+03   -0.90126E-01   -0.60973E-01   935   0.149E+00    0.996E-02
RMM:   3    -0.367055440825E+03    0.15376E-01   -0.64840E-02   909   0.406E-01    0.740E-02
RMM:   4    -0.367053980907E+03    0.14599E-02   -0.31291E-03   695   0.161E-01    0.530E-02
RMM:   5    -0.367054022362E+03   -0.41454E-04   -0.11423E-03   533   0.552E-02    0.327E-02
RMM:   6    -0.367053974374E+03    0.47987E-04   -0.15364E-04   410   0.380E-02
3976 T=  3642. E= -.33240931E+03 F= -.36705397E+03 E0= -.36357068E+03  EK= 0.29655E+02 SP= 0.47E+01 SK= 0.24E+00
       N       E                     dE             d eps       ncg     rms          rms(c)
RMM:   1    -0.367280395359E+03   -0.36728E+03   -0.19360E+00   747   0.576E+00    0.190E-01
RMM:   2    -0.367347461768E+03   -0.67066E-01   -0.67169E-01   923   0.133E+00    0.774E-02
RMM:   3    -0.367326886561E+03    0.20575E-01   -0.64159E-02   951   0.448E-01    0.522E-02
RMM:   4    -0.367325484356E+03    0.14022E-02   -0.39150E-03   697   0.154E-01    0.442E-02
RMM:   5    -0.367325448103E+03    0.36254E-04   -0.84196E-04   537   0.535E-02
3977 T=  3609. E= -.33241233E+03 F= -.36732545E+03 E0= -.36384630E+03  EK= 0.29390E+02 SP= 0.53E+01 SK= 0.19E+00
       N       E                     dE             d eps       ncg     rms          rms(c)
RMM:   1    -0.367607782617E+03   -0.36761E+03   -0.21210E+00   883   0.397E+00    0.130E-01
RMM:   2    -0.367601121610E+03    0.66610E-02   -0.26040E-01   933   0.876E-01    0.113E-01
RMM:   3    -0.367592370736E+03    0.87509E-02   -0.46507E-02   884   0.352E-01    0.896E-02
RMM:   4    -0.367591863254E+03    0.50748E-03   -0.44807E-03   682   0.116E-01    0.609E-02
RMM:   5    -0.367591780175E+03    0.83079E-04   -0.58300E-04   490   0.521E-02
3978 T=  3585. E= -.33241371E+03 F= -.36759178E+03 E0= -.36412008E+03  EK= 0.29197E+02 SP= 0.58E+01 SK= 0.14E+00
       N       E                     dE             d eps       ncg     rms          rms(c)
RMM:   1    -0.367767029538E+03   -0.36777E+03   -0.20766E+00   791   0.554E+00    0.208E-01
RMM:   2    -0.367854261453E+03   -0.87232E-01   -0.70135E-01   932   0.137E+00    0.122E-01
RMM:   3    -0.367831580411E+03    0.22681E-01   -0.65770E-02   920   0.440E-01    0.823E-02
RMM:   4    -0.367829739472E+03    0.18409E-02   -0.40427E-03   692   0.176E-01    0.608E-02
RMM:   5    -0.367829770131E+03   -0.30660E-04   -0.12849E-03   553   0.568E-02    0.409E-02
RMM:   6    -0.367829712500E+03    0.57631E-04   -0.16037E-04   412   0.370E-02
3979 T=  3568. E= -.33241131E+03 F= -.36782971E+03 E0= -.36436855E+03  EK= 0.29056E+02 SP= 0.63E+01 SK= 0.91E-01
       N       E                     dE             d eps       ncg     rms          rms(c)
RMM:   1    -0.367999400893E+03   -0.36800E+03   -0.19128E+00   764   0.576E+00    0.187E-01
RMM:   2    -0.368079474495E+03   -0.80074E-01   -0.67845E-01   919   0.139E+00    0.150E-01
RMM:   3    -0.368057361080E+03    0.22113E-01   -0.10227E-01   964   0.457E-01    0.877E-02
RMM:   4    -0.368055648944E+03    0.17121E-02   -0.39387E-03   704   0.174E-01    0.591E-02
RMM:   5    -0.368055651513E+03   -0.25687E-05   -0.12776E-03   595   0.588E-02    0.307E-02
RMM:   6    -0.368055597322E+03    0.54191E-04   -0.14063E-04   403   0.371E-02
3980 T=  3559. E= -.33240703E+03 F= -.36805560E+03 E0= -.36460786E+03  EK= 0.28984E+02 SP= 0.66E+01 SK= 0.54E-01
       N       E                     dE             d eps       ncg     rms          rms(c)
RMM:   1    -0.368336487611E+03   -0.36834E+03   -0.16443E+00   901   0.322E+00    0.101E-01
RMM:   2    -0.368319807139E+03    0.16680E-01   -0.21423E-01   936   0.727E-01    0.930E-02
RMM:   3    -0.368315056461E+03    0.47507E-02   -0.13712E-02   850   0.320E-01    0.886E-02
RMM:   4    -0.368315098909E+03   -0.42448E-04   -0.33107E-03   665   0.897E-02    0.639E-02
RMM:   5    -0.368314965802E+03    0.13311E-03   -0.38144E-04   455   0.520E-02    0.444E-02
RMM:   6    -0.368314949707E+03    0.16094E-04   -0.19748E-04   397   0.296E-02
3981 T=  3564. E= -.33240313E+03 F= -.36831495E+03 E0= -.36488286E+03  EK= 0.29024E+02 SP= 0.69E+01 SK= 0.27E-01
       N       E                     dE             d eps       ncg     rms          rms(c)
RMM:   1    -0.368646839876E+03   -0.36865E+03   -0.14353E+00   842   0.398E+00    0.130E-01
RMM:   2    -0.368675727720E+03   -0.28888E-01   -0.34703E-01   937   0.950E-01    0.111E-01
RMM:   3    -0.368665674576E+03    0.10053E-01   -0.24419E-02   901   0.361E-01    0.562E-02
RMM:   4    -0.368665114170E+03    0.56041E-03   -0.31757E-03   655   0.114E-01    0.437E-02
RMM:   5    -0.368665047140E+03    0.67030E-04   -0.54572E-04   477   0.481E-02
3982 T=  3590. E= -.33239992E+03 F= -.36866505E+03 E0= -.36525016E+03  EK= 0.29231E+02 SP= 0.70E+01 SK= 0.92E-02
       N       E                     dE             d eps       ncg     rms          rms(c)
RMM:   1    -0.369143152423E+03   -0.36914E+03   -0.18212E+00   862   0.423E+00    0.114E-01
RMM:   2    -0.369165222716E+03   -0.22070E-01   -0.32479E-01   938   0.966E-01    0.886E-02
RMM:   3    -0.369155342288E+03    0.98804E-02   -0.26016E-02   885   0.357E-01    0.792E-02
RMM:   4    -0.369154723191E+03    0.61910E-03   -0.32185E-03   679   0.124E-01    0.536E-02
RMM:   5    -0.369154670008E+03    0.53183E-04   -0.64934E-04   495   0.490E-02
3983 T=  3641. E= -.33239905E+03 F= -.36915467E+03 E0= -.36575781E+03  EK= 0.29649E+02 SP= 0.71E+01 SK= 0.12E-02
       N       E                     dE             d eps       ncg     rms          rms(c)
RMM:   1    -0.369750713948E+03   -0.36975E+03   -0.21245E+00   780   0.559E+00    0.160E-01
RMM:   2    -0.369825995962E+03   -0.75282E-01   -0.62995E-01   932   0.139E+00    0.129E-01
RMM:   3    -0.369806918393E+03    0.19078E-01   -0.46163E-02   917   0.444E-01    0.739E-02
RMM:   4    -0.369805647080E+03    0.12713E-02   -0.44596E-03   689   0.176E-01    0.600E-02
RMM:   5    -0.369805645629E+03    0.14501E-05   -0.11760E-03   525   0.565E-02    0.419E-02
RMM:   6    -0.369805589406E+03    0.56224E-04   -0.19958E-04   425   0.381E-02
3984 T=  3720. E= -.33240199E+03 F= -.36980559E+03 E0= -.36642680E+03  EK= 0.30290E+02 SP= 0.71E+01 SK= 0.24E-03
       N       E                     dE             d eps       ncg     rms          rms(c)
RMM:   1    -0.370564968194E+03   -0.37056E+03   -0.17310E+00   770   0.527E+00    0.166E-01
RMM:   2    -0.370619099443E+03   -0.54131E-01   -0.54337E-01   917   0.128E+00    0.674E-02
RMM:   3    -0.370603732555E+03    0.15367E-01   -0.41872E-02   939   0.445E-01    0.532E-02
RMM:   4    -0.370602628137E+03    0.11044E-02   -0.39399E-03   687   0.154E-01    0.459E-02
RMM:   5    -0.370602606834E+03    0.21302E-04   -0.87139E-04   511   0.517E-02
3985 T=  3822. E= -.33240912E+03 F= -.37060261E+03 E0= -.36724118E+03  EK= 0.31125E+02 SP= 0.71E+01 SK= 0.27E-02
       N       E                     dE             d eps       ncg     rms          rms(c)
RMM:   1    -0.371486240407E+03   -0.37149E+03   -0.16058E+00   874   0.381E+00    0.992E-02
RMM:   2    -0.371499569881E+03   -0.13329E-01   -0.24607E-01   936   0.859E-01    0.679E-02
RMM:   3    -0.371491948396E+03    0.76215E-02   -0.49325E-02   876   0.324E-01    0.421E-02
RMM:   4    -0.371491585613E+03    0.36278E-03   -0.35439E-03   648   0.110E-01    0.286E-02
RMM:   5    -0.371491574231E+03    0.11382E-04   -0.50844E-04   458   0.455E-02
3986 T=  3940. E= -.33241909E+03 F= -.37149157E+03 E0= -.36814654E+03  EK= 0.32085E+02 SP= 0.70E+01 SK= 0.50E-02
       N       E                     dE             d eps       ncg     rms          rms(c)
RMM:   1    -0.372331224980E+03   -0.37233E+03   -0.19267E+00   773   0.562E+00    0.170E-01
RMM:   2    -0.372405371870E+03   -0.74147E-01   -0.58236E-01   931   0.140E+00    0.114E-01
RMM:   3    -0.372390571611E+03    0.14800E-01   -0.50351E-02   911   0.424E-01    0.642E-02
RMM:   4    -0.372389516506E+03    0.10551E-02   -0.35278E-03   686   0.168E-01    0.492E-02
RMM:   5    -0.372389564412E+03   -0.47906E-04   -0.11211E-03   514   0.526E-02    0.349E-02
RMM:   6    -0.372389523577E+03    0.40835E-04   -0.14401E-04   403   0.367E-02
3987 T=  4061. E= -.33243001E+03 F= -.37238952E+03 E0= -.36905921E+03  EK= 0.33068E+02 SP= 0.69E+01 SK= 0.50E-02
       N       E                     dE             d eps       ncg     rms          rms(c)
RMM:   1    -0.373146397571E+03   -0.37315E+03   -0.19228E+00   785   0.577E+00    0.145E-01
RMM:   2    -0.373219675791E+03   -0.73278E-01   -0.62630E-01   925   0.138E+00    0.708E-02
RMM:   3    -0.373201112270E+03    0.18564E-01   -0.88300E-02   931   0.451E-01    0.550E-02
RMM:   4    -0.373199976493E+03    0.11358E-02   -0.38128E-03   698   0.170E-01    0.416E-02
RMM:   5    -0.373200014802E+03   -0.38309E-04   -0.10865E-03   534   0.523E-02    0.297E-02
RMM:   6    -0.373199973226E+03    0.41576E-04   -0.12470E-04   390   0.357E-02
3988 T=  4169. E= -.33244051E+03 F= -.37319997E+03 E0= -.36988207E+03  EK= 0.33954E+02 SP= 0.68E+01 SK= 0.28E-02
       N       E                     dE             d eps       ncg     rms          rms(c)
RMM:   1    -0.373837733483E+03   -0.37384E+03   -0.17422E+00   899   0.350E+00    0.960E-02
RMM:   2    -0.373831907677E+03    0.58258E-02   -0.18117E-01   940   0.768E-01    0.702E-02
RMM:   3    -0.373827882771E+03    0.40249E-02   -0.14542E-02   866   0.324E-01    0.513E-02
RMM:   4    -0.373827992400E+03   -0.10963E-03   -0.34270E-03   672   0.913E-02    0.296E-02
RMM:   5    -0.373827898092E+03    0.94308E-04   -0.34011E-04   443   0.484E-02
3989 T=  4252. E= -.33244905E+03 F= -.37382790E+03 E0= -.37051992E+03  EK= 0.34625E+02 SP= 0.68E+01 SK= 0.36E-03
       N       E                     dE             d eps       ncg     rms          rms(c)
RMM:   1    -0.374126182972E+03   -0.37413E+03   -0.21917E+00   772   0.599E+00    0.172E-01
RMM:   2    -0.374206170567E+03   -0.79988E-01   -0.58121E-01   925   0.150E+00    0.110E-01
RMM:   3    -0.374193477469E+03    0.12693E-01   -0.42824E-02   928   0.431E-01    0.638E-02
RMM:   4    -0.374192453252E+03    0.10242E-02   -0.33730E-03   681   0.169E-01    0.455E-02
RMM:   5    -0.374192502389E+03   -0.49137E-04   -0.10501E-03   525   0.538E-02    0.315E-02
RMM:   6    -0.374192461254E+03    0.41136E-04   -0.14122E-04   394   0.385E-02
3990 T=  4296. E= -.33245375E+03 F= -.37419246E+03 E0= -.37089172E+03  EK= 0.34984E+02 SP= 0.68E+01 SK= 0.59E-03
       N       E                     dE             d eps       ncg     rms          rms(c)
RMM:   1    -0.374190322861E+03   -0.37419E+03   -0.20993E+00   800   0.564E+00    0.131E-01
RMM:   2    -0.374253722446E+03   -0.63400E-01   -0.61084E-01   931   0.132E+00    0.766E-02
RMM:   3    -0.374236238645E+03    0.17484E-01   -0.62417E-02   927   0.442E-01    0.589E-02
RMM:   4    -0.374235378638E+03    0.86001E-03   -0.44130E-03   693   0.160E-01    0.387E-02
RMM:   5    -0.374235360417E+03    0.18221E-04   -0.99543E-04   530   0.533E-02
3991 T=  4293. E= -.33245415E+03 F= -.37423536E+03 E0= -.37093950E+03  EK= 0.34961E+02 SP= 0.68E+01 SK= 0.50E-02
       N       E                     dE             d eps       ncg     rms          rms(c)
RMM:   1    -0.373930940233E+03   -0.37393E+03   -0.23228E+00   889   0.427E+00    0.998E-02
RMM:   2    -0.373932923667E+03   -0.19834E-02   -0.25129E-01   936   0.943E-01    0.647E-02
RMM:   3    -0.373925701414E+03    0.72223E-02   -0.54658E-02   891   0.370E-01    0.527E-02
RMM:   4    -0.373925559445E+03    0.14197E-03   -0.39303E-03   699   0.117E-01    0.386E-02
RMM:   5    -0.373925487124E+03    0.72320E-04   -0.54987E-04   473   0.493E-02
3992 T=  4240. E= -.33245019E+03 F= -.37392549E+03 E0= -.37063285E+03  EK= 0.34528E+02 SP= 0.69E+01 SK= 0.13E-01
       N       E                     dE             d eps       ncg     rms          rms(c)
RMM:   1    -0.373197972983E+03   -0.37320E+03   -0.21977E+00   784   0.604E+00    0.173E-01
RMM:   2    -0.373281119182E+03   -0.83146E-01   -0.62800E-01   929   0.148E+00    0.951E-02
RMM:   3    -0.373265307294E+03    0.15812E-01   -0.43815E-02   909   0.450E-01    0.612E-02
RMM:   4    -0.373264167103E+03    0.11402E-02   -0.34588E-03   709   0.181E-01    0.458E-02
RMM:   5    -0.373264236313E+03   -0.69210E-04   -0.11016E-03   541   0.544E-02    0.294E-02
RMM:   6    -0.373264196413E+03    0.39901E-04   -0.15184E-04   400   0.381E-02
3993 T=  4138. E= -.33244205E+03 F= -.37326420E+03 E0= -.36997407E+03  EK= 0.33699E+02 SP= 0.71E+01 SK= 0.21E-01
       N       E                     dE             d eps       ncg     rms          rms(c)
RMM:   1    -0.372233861204E+03   -0.37223E+03   -0.19640E+00   784   0.585E+00    0.147E-01
RMM:   2    -0.372310188005E+03   -0.76327E-01   -0.67600E-01   925   0.142E+00    0.105E-01
RMM:   3    -0.372290810382E+03    0.19378E-01   -0.10682E-01   939   0.474E-01    0.647E-02
RMM:   4    -0.372289719218E+03    0.10912E-02   -0.41958E-03   717   0.167E-01    0.479E-02
RMM:   5    -0.372289696768E+03    0.22450E-04   -0.93025E-04   555   0.547E-02
3994 T=  3996. E= -.33242964E+03 F= -.37228970E+03 E0= -.36900209E+03  EK= 0.32539E+02 SP= 0.73E+01 SK= 0.24E-01
       N       E                     dE             d eps       ncg     rms          rms(c)
RMM:   1    -0.371079574482E+03   -0.37108E+03   -0.19096E+00   872   0.422E+00    0.106E-01
RMM:   2    -0.371087222592E+03   -0.76481E-02   -0.24934E-01   950   0.930E-01    0.877E-02
RMM:   3    -0.371080039612E+03    0.71830E-02   -0.33497E-02   874   0.330E-01    0.576E-02
RMM:   4    -0.371079713057E+03    0.32655E-03   -0.30052E-03   660   0.112E-01    0.373E-02
RMM:   5    -0.371079672093E+03    0.40964E-04   -0.45620E-04   473   0.469E-02
3995 T=  3826. E= -.33241246E+03 F= -.37107967E+03 E0= -.36779495E+03  EK= 0.31155E+02 SP= 0.75E+01 SK= 0.19E-01
       N       E                     dE             d eps       ncg     rms          rms(c)
RMM:   1    -0.369690094888E+03   -0.36969E+03   -0.21692E+00   787   0.585E+00    0.177E-01
RMM:   2    -0.369770326672E+03   -0.80232E-01   -0.63853E-01   927   0.143E+00    0.110E-01
RMM:   3    -0.369753381962E+03    0.16945E-01   -0.47965E-02   917   0.437E-01    0.744E-02
RMM:   4    -0.369752014469E+03    0.13675E-02   -0.31857E-03   712   0.171E-01    0.530E-02
RMM:   5    -0.369752061808E+03   -0.47338E-04   -0.11147E-03   546   0.556E-02    0.306E-02
RMM:   6    -0.369752014501E+03    0.47306E-04   -0.15198E-04   403   0.376E-02
3996 T=  3647. E= -.33239283E+03 F= -.36975201E+03 E0= -.36647049E+03  EK= 0.29698E+02 SP= 0.77E+01 SK= 0.96E-02
       N       E                     dE             d eps       ncg     rms          rms(c)
RMM:   1    -0.368405825419E+03   -0.36841E+03   -0.19512E+00   761   0.584E+00    0.159E-01
RMM:   2    -0.368478278415E+03   -0.72453E-01   -0.66108E-01   921   0.141E+00    0.112E-01
RMM:   3    -0.368458497803E+03    0.19781E-01   -0.78587E-02   946   0.471E-01    0.730E-02
RMM:   4    -0.368456985968E+03    0.15118E-02   -0.36977E-03   715   0.169E-01    0.511E-02
RMM:   5    -0.368456991452E+03   -0.54836E-05   -0.10202E-03   558   0.550E-02    0.313E-02
RMM:   6    -0.368456947579E+03    0.43872E-04   -0.10961E-04   385   0.345E-02
3997 T=  3480. E= -.33237467E+03 F= -.36845695E+03 E0= -.36517865E+03  EK= 0.28341E+02 SP= 0.77E+01 SK= 0.82E-03
       N       E                     dE             d eps       ncg     rms          rms(c)
RMM:   1    -0.367372372264E+03   -0.36737E+03   -0.17572E+00   896   0.346E+00    0.912E-02
RMM:   2    -0.367362983633E+03    0.93886E-02   -0.26345E-01   948   0.780E-01    0.741E-02
RMM:   3    -0.367357821136E+03    0.51625E-02   -0.16250E-02   873   0.317E-01    0.547E-02
RMM:   4    -0.367357666927E+03    0.15421E-03   -0.28443E-03   676   0.976E-02    0.323E-02
RMM:   5    -0.367357601061E+03    0.65865E-04   -0.36973E-04   467   0.466E-02
3998 T=  3349. E= -.33235930E+03 F= -.36735760E+03 E0= -.36408251E+03  EK= 0.27270E+02 SP= 0.77E+01 SK= 0.41E-02
       N       E                     dE             d eps       ncg     rms          rms(c)
RMM:   1    -0.366545392923E+03   -0.36655E+03   -0.20785E+00   787   0.551E+00    0.201E-01
RMM:   2    -0.366619166482E+03   -0.73774E-01   -0.62289E-01   930   0.139E+00    0.124E-01
RMM:   3    -0.366601130747E+03    0.18036E-01   -0.63585E-02   922   0.432E-01    0.739E-02
RMM:   4    -0.366599641704E+03    0.14890E-02   -0.35698E-03   710   0.169E-01    0.527E-02
RMM:   5    -0.366599693234E+03   -0.51531E-04   -0.11881E-03   514   0.548E-02    0.377E-02
RMM:   6    -0.366599642270E+03    0.50964E-04   -0.17315E-04   418   0.382E-02
3999 T=  3272. E= -.33234864E+03 F= -.36659964E+03 E0= -.36332758E+03  EK= 0.26643E+02 SP= 0.76E+01 SK= 0.30E-01
       N       E                     dE             d eps       ncg     rms          rms(c)
RMM:   1    -0.366249545045E+03   -0.36625E+03   -0.19181E+00   789   0.504E+00    0.116E-01
RMM:   2    -0.366300044685E+03   -0.50500E-01   -0.57390E-01   927   0.120E+00    0.799E-02
RMM:   3    -0.366281150411E+03    0.18894E-01   -0.57138E-02   926   0.446E-01    0.706E-02
RMM:   4    -0.366279986505E+03    0.11639E-02   -0.46051E-03   724   0.146E-01    0.535E-02
RMM:   5    -0.366279893663E+03    0.92842E-04   -0.87342E-04   533   0.538E-02
4000 T=  3262. E= -.33234617E+03 F= -.36627989E+03 E0= -.36301101E+03  EK= 0.26565E+02 SP= 0.73E+01 SK= 0.84E-01
